-1.057811121116831782e+05
-1.057865704772762983e+05
-1.057846488368461869e+05
-1.057899558318294439e+05
-1.057889111994011910e+05
-1.057851873875775782e+05
-1.057877891491186165e+05
-1.057800861448593205e+05
-1.057927341108726978e+05
-1.057808433250488742e+05
-1.057910081014999596e+05
-1.057882267083402694e+05
-1.057841010527092731e+05
-1.057903615986184159e+05
-1.057878529522142926e+05
-1.057857946717679297e+05
-1.057831832272939937e+05
-1.057916720872100705e+05
-1.057875523118068231e+05
-1.057867580803544261e+05
-1.057895460415361886e+05
-1.057853347361742926e+05
-1.057957431604797748e+05
-1.057831398659121332e+05
-1.057902022643435048e+05
-1.057927276260940125e+05
-1.057917743103394896e+05
-1.057871337872931035e+05
-1.057818149284245737e+05
-1.057875180070040660e+05
-1.057904445705447579e+05
-1.057922120059883746e+05
-1.057859714169138024e+05
-1.057860346530594979e+05
-1.057791603114854515e+05
-1.057861425400558073e+05
-1.057900045477623789e+05
-1.057873888905300264e+05
-1.057830191118801886e+05
-1.057913897751246841e+05
-1.057900291880506556e+05
-1.057908165981299389e+05
-1.057903321823171573e+05
-1.057911039811010414e+05
-1.057843178938556521e+05
-1.057860217708522978e+05
-1.057832182737177354e+05
-1.057869582819232892e+05
-1.057896277681040374e+05
-1.057869117754472536e+05
-1.057872342493979522e+05
-1.057882064854260971e+05
-1.057823424380957731e+05
-1.057819937948918523e+05
-1.057944988564730593e+05
-1.057876535712038458e+05
-1.057885813238080154e+05
-1.057830939014991018e+05
-1.057820718571880716e+05
-1.057855976019757509e+05
-1.057866019990970963e+05
-1.057898699119766970e+05
-1.057885829192859674e+05
-1.057885825476025930e+05
-1.057829694307723839e+05
-1.057852153857075755e+05
-1.057926273501170654e+05
-1.057863111267360800e+05
-1.057903634931201086e+05
-1.057913363434638304e+05
-1.057908263946502848e+05
-1.057887689615219715e+05
-1.057894144455202913e+05
-1.057833298378013133e+05
-1.057939379469272826e+05
-1.057900715855357848e+05
-1.057862793241003819e+05
-1.057849867313277355e+05
-1.057874279867225268e+05
-1.057874036417824245e+05
-1.057845034052903356e+05
-1.057922933202862623e+05
-1.057888400512880762e+05
-1.057867944383886497e+05
-1.057849105172251730e+05
-1.057858261948435829e+05
-1.057877601630154822e+05
-1.057886459388624498e+05
-1.057891395684206364e+05
-1.057910796163760533e+05
-1.057869678860879067e+05
-1.057872563253899571e+05
-1.057901737407014734e+05
-1.057796083581848507e+05
-1.057828238890643406e+05
-1.057942968239886977e+05
-1.057823211135097517e+05
-1.057882911563477246e+05
-1.057902931996798579e+05
-1.057869990907011816e+05
-1.057898244232427242e+05
-1.057887588469956827e+05
-1.057869466612112446e+05
-1.057919315269698563e+05
-1.057887847607434232e+05
-1.057867516133371973e+05
-1.057887876441541448e+05
-1.057826068647263746e+05
-1.057914300659894361e+05
-1.057893875207794772e+05
-1.057876701425429055e+05
-1.057881692863074568e+05
-1.057919156909345184e+05
-1.057901927880740841e+05
-1.057878362455441529e+05
-1.057893137725054112e+05
-1.057868211413428362e+05
-1.057880572556367115e+05
-1.057879680050100142e+05
-1.057989165246571210e+05
-1.057846514929648547e+05
-1.057885445921942301e+05
-1.057903184765475016e+05
-1.057885636534489458e+05
-1.057930867985815130e+05
-1.057882501634953660e+05
-1.057866108524900628e+05
-1.057853833087090024e+05
-1.057903506075853511e+05
-1.057856633668893628e+05
-1.057807867722459196e+05
-1.057864343182190350e+05
-1.057903370569757244e+05
-1.057884073851369176e+05
-1.057863334013395506e+05
-1.057860088864889258e+05
-1.057862379913920449e+05
-1.057821785443752597e+05
-1.057886723173812497e+05
-1.057860976439710503e+05
-1.057924877581660839e+05
-1.057893555635712837e+05
-1.057895507596694370e+05
-1.057979770789078175e+05
-1.057868635512181645e+05
-1.057905797231592733e+05
-1.057885538311530108e+05
-1.057861868992597738e+05
-1.057892085058862576e+05
-1.057895406901986426e+05
-1.057900930444199330e+05
-1.057847654104294634e+05
-1.057843976549851213e+05
-1.057860695592093980e+05
-1.057857684469276428e+05
-1.057951775581150141e+05
-1.057922364653015684e+05
-1.057914861419374502e+05
-1.057865435364448786e+05
-1.057882819550278364e+05
-1.057789070984253194e+05
-1.057864377452169283e+05
-1.057852923724787688e+05
-1.057880149644009507e+05
-1.057901200545771862e+05
-1.057931300785692729e+05
-1.057836133030600176e+05
-1.057918360387711000e+05
-1.057845525225010060e+05
-1.057851976373278594e+05
-1.057886208569588634e+05
-1.057848250021436688e+05
-1.057865983752692555e+05
-1.057860374099138135e+05
-1.057894485318544612e+05
-1.057899216311520140e+05
-1.057896951837964152e+05
-1.057899626285295963e+05
-1.057875323568694293e+05
-1.057928224565388518e+05
-1.057947396460242308e+05
-1.057968977832267410e+05
-1.057846127914230892e+05
-1.057968881280160276e+05
-1.057829306545102154e+05
-1.057882053464690543e+05
-1.057884976236584916e+05
-1.057904257256719284e+05
-1.057965420303910068e+05
-1.057821179439055995e+05
-1.057934057977670018e+05
-1.057935251889744832e+05
-1.057888131463188474e+05
-1.057817886284436972e+05
-1.057856826226677949e+05
-1.057858876574747846e+05
-1.057860202278532233e+05
-1.057788981663691957e+05
-1.057888027212851157e+05
-1.057864705241889460e+05
-1.057872932366765599e+05
-1.057900512697666563e+05
-1.057848175590391911e+05
-1.057902301737189991e+05
-1.057912477410395077e+05
-1.057897356464216718e+05
-1.057975502324671688e+05
-1.057869323733532656e+05
-1.057876089934755582e+05
-1.057825114456268639e+05
-1.057859973296372336e+05
-1.057949306979166722e+05
-1.057845068173247273e+05
-1.057874161014913843e+05
-1.057917903795956081e+05
-1.057911143882549659e+05
-1.057947076183380414e+05
-1.057865631119037571e+05
-1.057911700950744998e+05
-1.057940193653251627e+05
-1.057801066627586115e+05
-1.057927126634689193e+05
-1.057903048662597866e+05
-1.057915810141331312e+05
-1.057896695617201913e+05
