-3.965374056900854782e+01 4.195396057007147128e+00 -2.441708486802851397e+01 4.195396057007147128e+00 -3.967871337869068782e+01 -4.659814157856546046e+01 -2.441708486802851397e+01 -4.659814157856546046e+01 -8.256941332122673316e+01
2.495808014285085807e+00 -1.862410477147999233e+00 2.141477310004487222e+01 -1.862410477147999233e+00 -7.407859246293803324e+01 -5.442125752530162508e+00 2.141477310004487222e+01 -5.442125752530162508e+00 -4.748053642879849434e+01
-1.946522790043142948e+01 -1.567940484165024095e+01 1.706516141021102584e+01 -1.567940484165024095e+01 -2.893579289407513855e+01 -2.389144621015912406e+01 1.706516141021102584e+01 -2.389144621015912406e+01 -1.007021887560928342e+01
-5.793185785300874358e+01 1.301652701534095513e+01 -1.951288548953115765e+01 1.301652701534095513e+01 -1.806285990233203975e+01 2.170301184150275375e+01 -1.951288548953115765e+01 2.170301184150275375e+01 -5.968410600804870825e+01
-2.392115114536913723e+01 -5.297502371301089363e-01 -8.040781927780358274e+00 -5.297502371301089363e-01 -1.511962792555864432e+01 -7.846455782517086419e+00 -8.040781927780358274e+00 -7.846455782517086419e+00 1.523313209709613325e+01
-2.015757818271156054e+01 5.782637217950799169e+01 -5.729782392208351283e+00 5.782637217950799169e+01 -1.884870347431178317e+01 -5.822506523835222936e+00 -5.729782392208351283e+00 -5.822506523835222936e+00 -1.221201875705614226e+00
-1.989215777804641405e+01 2.108079602664904684e+01 -4.828272182307096649e+00 2.108079602664904684e+01 -4.860476252146716547e+01 -1.148931203778830179e-02 -4.828272182307096649e+00 -1.148931203778830179e-02 -4.495996513065198030e+01
-2.547687394869960542e+01 2.399545780812752582e+01 -1.449659465851111584e+01 2.399545780812752582e+01 -3.707299485334981881e+01 2.076483814598473643e+01 -1.449659465851111584e+01 2.076483814598473643e+01 -1.993909470327675404e+00
-8.451191270233594821e+01 1.515972816982587013e+01 -1.372386114954037772e+01 1.515972816982587013e+01 -3.292322377803237288e+01 2.465231778735762802e+01 -1.372386114954037772e+01 2.465231778735762802e+01 -1.560356229453358345e+01
-3.768686588127894055e+01 3.782797325095325647e+01 -5.331616802061031613e-02 3.782797325095325647e+01 -8.149887092960288015e+00 5.066851308667853715e+01 -5.331616802061031613e-02 5.066851308667853715e+01 -2.873531388490713212e+00
-1.090719997400089269e+01 1.108679655781324591e+01 -4.377225730255370983e+00 1.108679655781324591e+01 -8.793092163076343226e+00 1.850576656170023426e+01 -4.377225730255370983e+00 1.850576656170023426e+01 -3.451602133742667178e+01
-2.179959981724618956e+01 -2.184349236061762412e+01 2.838785984419785535e+01 -2.184349236061762412e+01 -6.768536518987338013e+01 -2.660769118040575165e+01 2.838785984419785535e+01 -2.660769118040575165e+01 -3.605699073493770612e+01
-4.394449559114249126e+01 -1.823941642743987757e+01 -3.618097084722179613e+00 -1.823941642743987757e+01 2.285922576117761906e+01 4.090629721157876730e+01 -3.618097084722179613e+00 4.090629721157876730e+01 -5.197996492081769304e+01
1.712709902838702547e+01 4.567872909608585275e+01 -6.760724806967342460e+00 4.567872909608585275e+01 -5.216292125181565353e+01 -5.867586101543651900e+00 -6.760724806967342460e+00 -5.867586101543651900e+00 -2.742778882683238351e+01
-1.642276730753137670e+01 -5.524346164538079806e-01 -3.414358733083508923e+01 -5.524346164538079806e-01 -5.666296311972649136e+01 -5.803721306510469802e-01 -3.414358733083508923e+01 -5.803721306510469802e-01 -8.718998237823859654e+01
3.898520842225586591e+01 -1.171682977973882700e+01 5.059973686455091268e+00 -1.171682977973882700e+01 -3.828338135794214114e+00 3.444952645730663843e+00 5.059973686455091268e+00 3.444952645730663843e+00 1.103664940181863763e+01
-4.815541561503195567e+01 -2.458343981875737327e+01 7.714741702942959023e+00 -2.458343981875737327e+01 -7.466167997067846329e+01 2.525434937920531198e+00 7.714741702942959023e+00 2.525434937920531198e+00 5.604850901817099107e+00
-4.488674072152031158e+01 -2.824416211457014114e+01 2.971909891688840233e+01 -2.824416211457014114e+01 1.173314083621766457e+01 -1.474147676251304162e+01 2.971909891688840233e+01 -1.474147676251304162e+01 -1.786934019000724305e+01
-5.161580735054670299e+01 3.367004943219694013e+01 3.354972781128331150e+01 3.367004943219694013e+01 -1.089349623885749985e+01 -2.786433390917112263e+01 3.354972781128331150e+01 -2.786433390917112263e+01 -1.315840900105263067e+01
-1.829218009278702439e+01 1.617595491428486554e+01 -6.313386159031407985e+00 1.617595491428486554e+01 -7.987292642156176292e+00 2.510286332393905084e+01 -6.313386159031407985e+00 2.510286332393905084e+01 -2.274556982108028791e+01
-3.138995051080357612e+01 -1.265977619462730352e+01 -1.612768678189231153e+01 -1.265977619462730352e+01 -1.994098879651983225e+01 9.738275711115512934e+00 -1.612768678189231153e+01 9.738275711115512934e+00 3.580277884562917023e+01
-8.981157713947792942e+00 -1.027170828446823236e+01 -2.536760790676328092e+00 -1.027170828446823236e+01 -2.409045749843744488e+01 6.040891368972546083e+00 -2.536760790676328092e+00 6.040891368972546083e+00 2.182635701467662059e+01
-2.247405710642611965e+01 -3.110310807065609140e+00 9.314287237418901189e-01 -3.110310807065609140e+00 -6.062541758128379854e+01 -3.350982004119045854e+01 9.314287237418901189e-01 -3.350982004119045854e+01 1.118045612156273094e+01
2.177615850844900791e+01 -2.472449332210004158e+01 -3.758030740970603745e+01 -2.472449332210004158e+01 -4.378374822469518080e+01 -1.484053118617991807e+01 -3.758030740970603745e+01 -1.484053118617991807e+01 -1.155367436889543598e+01
-2.043123264845685583e+01 -9.410213883619640285e+00 -1.537286678835800835e+01 -9.410213883619640285e+00 2.058268804246070172e+00 -2.093090094444019300e+01 -1.537286678835800835e+01 -2.093090094444019300e+01 -1.953293149599185696e+01
7.329922170404887360e+00 -1.713304063488965356e+00 5.082924211387960689e+00 -1.713304063488965356e+00 -3.951216774698031742e+01 -9.871982499173853398e+00 5.082924211387960689e+00 -9.871982499173853398e+00 -2.759146923923590844e+00
-1.302328311608899547e+01 1.219499558002222628e+01 -1.894752494234341711e+01 1.219499558002222628e+01 4.384437347047403222e+01 1.378341861120829392e+01 -1.894752494234341711e+01 1.378341861120829392e+01 -2.000373680496844031e+01
-4.631828740615515017e+01 1.802641354116656913e+01 -2.293266180491260542e+01 1.802641354116656913e+01 -4.905170338317594769e+01 3.671620748472875118e+00 -2.293266180491260542e+01 3.671620748472875118e+00 -4.194801848400287980e+01
2.073120204592394344e+01 1.803507041094179897e+01 5.465091752429257355e+01 1.803507041094179897e+01 -1.603428678340278690e+00 8.767012803763069684e+00 5.465091752429257355e+01 8.767012803763069684e+00 -8.226828269495518597e+00
-4.489774447807000968e+01 2.102418611194427811e+01 1.014802158280615529e+01 2.102418611194427811e+01 -4.444937146257640848e+01 1.340185167182645465e+01 1.014802158280615529e+01 1.340185167182645465e+01 -4.728251263276148819e+01
-1.687755959606355205e+01 6.936225432857877848e+00 5.801774808336312539e+00 6.936225432857877848e+00 1.293322081142855406e+00 -3.002965339183696614e+01 5.801774808336312539e+00 -3.002965339183696614e+01 5.122267667568522143e+01
-8.119185609652893731e+01 4.134160593354074820e+00 3.820138964527483250e+00 4.134160593354074820e+00 -1.309250629918841113e+01 3.809915011819339226e-01 3.820138964527483250e+00 3.809915011819339226e-01 -6.362709561281955217e+01
-2.078216217771584695e+01 -9.218502838498467966e+00 2.780341830978096507e+00 -9.218502838498467966e+00 -4.898375650635711054e+01 4.695298330234907169e+00 2.780341830978096507e+00 4.695298330234907169e+00 -2.610744723524695843e+01
1.145155519441029313e+01 -6.677754303166469008e+00 1.438718652623587602e+01 -6.677754303166469008e+00 -2.860416261960102347e+01 2.621804235039145503e+00 1.438718652623587602e+01 2.621804235039145503e+00 -1.187007606414982774e+01
-1.631804154774383520e+01 1.290565677500147501e+01 -1.937338648644271633e+00 1.290565677500147501e+01 2.146231260772899674e+01 -1.807702483316883857e+01 -1.937338648644271633e+00 -1.807702483316883857e+01 -5.286870666245708783e+00
1.755993724915958865e+01 -1.044300948987938504e+01 -5.274298042556304189e+00 -1.044300948987938504e+01 4.682112437167114649e+01 1.257447519108489331e+01 -5.274298042556304189e+00 1.257447519108489331e+01 -3.823976313801045990e+01
-9.114899314625299453e+00 2.144845934827816691e+01 5.583959778728016410e+00 2.144845934827816691e+01 -9.289945501800954020e+00 -1.157381267731870222e+00 5.583959778728016410e+00 -1.157381267731870222e+00 -4.129158044998592914e+01
-4.811424354856114860e+01 8.480164376508589896e+00 5.170109625033179945e+00 8.480164376508589896e+00 3.456384624910890579e+01 -6.836749440698204694e+01 5.170109625033179945e+00 -6.836749440698204694e+01 -2.137031919945430758e+01
-1.732429584812275891e+01 -1.676590355036219648e+01 -3.660463858322898112e+00 -1.676590355036219648e+01 4.474816764194277852e+01 -3.138885510813965851e+01 -3.660463858322898112e+00 -3.138885510813965851e+01 -1.041520918654719408e+00
-5.884187817326859715e+01 3.686552532748192590e+01 3.975341406977232150e+00 3.686552532748192590e+01 -4.993980143534545135e+01 1.504157147878347800e+01 3.975341406977232150e+00 1.504157147878347800e+01 -5.637038977417642371e+00
4.258748827228329503e+01 -2.560682374493471158e+01 1.664480595439728106e+01 -2.560682374493471158e+01 -3.160685445189679044e+01 2.405663708409057477e+01 1.664480595439728106e+01 2.405663708409057477e+01 -4.673109527057584245e+01
-1.348629451361516729e+01 -1.540145315251414715e+01 3.268865560066284370e+00 -1.540145315251414715e+01 -2.102369102824231462e+01 -2.471719208257332667e+01 3.268865560066284370e+00 -2.471719208257332667e+01 7.541565562064195483e+00
-3.002311862184408398e+01 1.421777929320283285e+01 -1.094599657865174969e+01 1.421777929320283285e+01 1.885343912268570321e+01 -2.357754162809586163e+01 -1.094599657865174969e+01 -2.357754162809586163e+01 -1.257669661155873442e+01
-3.903820715973333932e+01 -1.056043357439508945e+00 -9.260695525684596419e+00 -1.056043357439508945e+00 -5.078594102782700759e+01 -1.210068014238284029e+01 -9.260695525684596419e+00 -1.210068014238284029e+01 -1.695223279084689239e+01
-1.756801942093034086e+01 -1.364109869877072079e+01 -1.552240238768387393e+01 -1.364109869877072079e+01 -7.505677064601805171e+01 9.597651226450594208e+00 -1.552240238768387393e+01 9.597651226450594208e+00 -8.238079671142651605e+00
9.674297045585259269e+00 1.330505179483566813e+01 -1.270656791589592771e+01 1.330505179483566813e+01 2.383649628591383518e+00 -2.079361920080978621e+01 -1.270656791589592771e+01 -2.079361920080978621e+01 9.501204855018880124e+00
-5.249593071283874934e+01 -9.625532442471147476e+00 -1.147323736479838763e+00 -9.625532442471147476e+00 -3.327025168195729066e+01 -7.317370653939394565e+00 -1.147323736479838763e+00 -7.317370653939394565e+00 -6.241836702299984552e+01
2.356408808686472511e+01 -2.418225129774444326e+01 4.661111300644738265e+01 -2.418225129774444326e+01 -4.196149435861835642e+00 -1.734793961429230791e+01 4.661111300644738265e+01 -1.734793961429230791e+01 -4.303391499701135814e+01
2.770121878621568712e+01 2.596384161331278406e+01 -7.623967429345116287e+00 2.596384161331278406e+01 4.687766722521544693e+01 -5.695724839083247559e+00 -7.623967429345116287e+00 -5.695724839083247559e+00 5.491060410002737768e+01
-8.060424270517924583e+01 -1.779132544506227021e+01 1.597982259026117724e+01 -1.779132544506227021e+01 -4.269540375119109399e+01 -1.327009359985243364e+01 1.597982259026117724e+01 -1.327009359985243364e+01 -5.039702301534450157e+01
-6.619783863883194286e+00 2.971843151638110569e+01 4.099545491644941642e+00 2.971843151638110569e+01 -7.625736385922024851e+01 -2.497475785012011684e+01 4.099545491644941642e+00 -2.497475785012011684e+01 -4.453066552473864448e+01
-2.642946897133591477e+01 2.682473037322891685e+01 3.919683222872577488e+01 2.682473037322891685e+01 -5.220230528628217570e+01 2.322496891336505165e+00 3.919683222872577488e+01 2.322496891336505165e+00 -9.942406019552477048e+00
-2.214437119417872424e+01 2.845669452992083404e+00 2.356081524394130611e+01 2.845669452992083404e+00 -2.307239030958309556e+01 -1.205297735362072054e+01 2.356081524394130611e+01 -1.205297735362072054e+01 -3.794491157391648528e+01
-2.147880707304455328e+01 5.996117947107584278e+00 1.117926448889522995e+01 5.996117947107584278e+00 -1.953644514343533345e+01 3.100324488575145310e+01 1.117926448889522995e+01 3.100324488575145310e+01 -6.968595233347500084e+01
-8.626476263709404790e+00 -4.254091482458759543e+01 4.784227852344710641e+01 -4.254091482458759543e+01 -1.601066505224438075e+01 7.214739878016947827e+00 4.784227852344710641e+01 7.214739878016947827e+00 1.225002968082252508e+01
-3.842791701987738406e+01 -1.103139582449968970e+01 -4.590789209658782788e+00 -1.103139582449968970e+01 -1.327936001615427841e+01 2.294527979941761586e+01 -4.590789209658782788e+00 2.294527979941761586e+01 -3.088172390270904089e+01
1.951125322911808979e+01 -5.463827235732644283e+00 -2.558518048146154555e+01 -5.463827235732644283e+00 -4.080269218881785775e+01 3.293957509599158584e+01 -2.558518048146154555e+01 3.293957509599158584e+01 -6.618653739524984303e+01
-6.645226659429594918e+01 5.578665132964316875e+00 3.518801107451511884e-03 5.578665132964316875e+00 -3.627848924291391342e+01 -4.815989870567891273e+01 3.518801107451511884e-03 -4.815989870567891273e+01 -7.628983420848410901e+01
2.177158674660864079e+01 -1.000270827530000695e+01 1.539724991746748906e+01 -1.000270827530000695e+01 -1.993697988845906011e+01 -6.324064500892795371e-01 1.539724991746748906e+01 -6.324064500892795371e-01 -5.284011337003635589e+01
-4.974626195654636263e+01 1.879837323004507343e+00 2.404512838803508501e+01 1.879837323004507343e+00 7.181806705664652846e-01 5.590625292057939788e+00 2.404512838803508501e+01 5.590625292057939788e+00 -1.243371135839090158e+01
-8.577496265006891463e+01 1.057441388378613567e+01 -9.284247102038619914e+00 1.057441388378613567e+01 -5.038771514459036638e+01 3.205953654255676355e+01 -9.284247102038619914e+00 3.205953654255676355e+01 -1.443510994051554697e+01
-3.655363231567026361e+01 -1.299691709784478277e+01 -1.426555466659337945e+01 -1.299691709784478277e+01 9.469724724996599008e+00 8.539300796702850249e+00 -1.426555466659337945e+01 8.539300796702850249e+00 -1.078532985090306262e+01
-6.286867796676085618e+01 1.191592961518073679e+01 -2.045991926701019636e+01 1.191592961518073679e+01 5.170811513499312184e+01 1.102258718407980709e+01 -2.045991926701019636e+01 1.102258718407980709e+01 -7.228262271863297883e+01
-3.894881707436082507e+01 -1.593158399749228948e+01 -2.688742236298526933e+01 -1.593158399749228948e+01 -5.554191933169658313e+01 -1.698997760918111410e+01 -2.688742236298526933e+01 -1.698997760918111410e+01 -5.498108857731887156e+01
-2.180463724059024955e+01 3.943806680503713746e+00 -1.106930960947924802e+01 3.943806680503713746e+00 -1.379704695007664128e+01 5.958921385162157947e+01 -1.106930960947924802e+01 5.958921385162157947e+01 -3.069830429846118758e+00
-2.372411821750651573e+00 -1.499496468376749903e+01 -1.481952682264678600e+01 -1.499496468376749903e+01 1.072530104907036019e+01 -2.789943616158593898e+01 -1.481952682264678600e+01 -2.789943616158593898e+01 2.225415683422731306e+01
-9.161009454078833159e+00 -1.756380643982187451e+01 -1.912584834969068837e+01 -1.756380643982187451e+01 -1.426845119917478044e+01 3.076951858088145642e+01 -1.912584834969068837e+01 3.076951858088145642e+01 -2.345091939574732276e+00
1.621570789819175351e+00 -6.714564966026056680e+00 3.728435920595617681e+00 -6.714564966026056680e+00 1.676072605418011463e+01 -2.024237960397860192e+01 3.728435920595617681e+00 -2.024237960397860192e+01 5.341073621602797061e+01
-3.741775652043727973e+01 -1.326603851505203835e+01 -2.151731439060515783e+01 -1.326603851505203835e+01 2.544124442379519024e+01 -6.633304878453570197e+00 -2.151731439060515783e+01 -6.633304878453570197e+00 -3.338020538606738796e+01
-5.764996095951225641e+01 2.011387120159034936e+01 -2.936500698202769755e+01 2.011387120159034936e+01 -3.204845122286857162e+01 3.926109095537310623e+01 -2.936500698202769755e+01 3.926109095537310623e+01 -7.179240323526332190e+01
-4.602598547544878294e+00 -4.463942650265127554e+01 1.968115823684855670e+01 -4.463942650265127554e+01 3.689567069686503231e+01 -4.247854706376116241e+01 1.968115823684855670e+01 -4.247854706376116241e+01 -3.049394744917047717e+01
1.353034566601018263e+01 -2.154901100556526927e+01 7.778900273371806229e+00 -2.154901100556526927e+01 2.491800941751442622e+01 -2.251196826030990650e+01 7.778900273371806229e+00 -2.251196826030990650e+01 -5.778329812619110584e+01
-3.118734646168154612e+01 1.819712210500794924e+01 -2.785424536278219954e+00 1.819712210500794924e+01 -1.873889772283136779e+01 1.937468113766497879e+01 -2.785424536278219954e+00 1.937468113766497879e+01 -4.379528535862237959e+01
1.501306053791762452e+01 1.609644264011634007e+01 -1.704948781337519037e+01 1.609644264011634007e+01 1.056139103108939636e+01 -5.688685827057423650e-01 -1.704948781337519037e+01 -5.688685827057423650e-01 -1.658784644247112894e+01
-2.099498858868899731e+01 4.805325346810356280e+00 6.775282467611325465e+00 4.805325346810356280e+00 -1.708528144045848629e+00 -5.616519231193442430e+00 6.775282467611325465e+00 -5.616519231193442430e+00 -1.237224245432132275e+00
2.997809656601672312e+00 -3.351378006268600274e+01 -7.315951988799241690e+00 -3.351378006268600274e+01 -6.282634911301464342e+01 -1.904595251896931796e+00 -7.315951988799241690e+00 -1.904595251896931796e+00 -4.507431359684160199e+00
7.309197021446548481e-01 -2.099723961953332108e+00 -2.406803316573369500e+01 -2.099723961953332108e+00 1.956328143966947763e+01 -2.817517640687147917e+01 -2.406803316573369500e+01 -2.817517640687147917e+01 -4.846994540654404382e+00
-8.818995160702177927e+00 1.709701385694833675e+01 9.298246894985355837e-01 1.709701385694833675e+01 -7.809429178374008984e+01 -4.394939086410767004e+01 9.298246894985355837e-01 -4.394939086410767004e+01 -4.682324007123631304e+01
1.484267098377408090e+01 4.197226276288635205e+01 4.219197186832259305e+00 4.197226276288635205e+01 -1.941547600574710097e-01 -2.353707665044736075e+01 4.219197186832259305e+00 -2.353707665044736075e+01 -2.023818091755148529e+01
-3.829226102844084068e+01 -1.156450031069175388e+01 -1.824869489210512796e+01 -1.156450031069175388e+01 -5.247072438192722643e+01 8.908014790717183828e+00 -1.824869489210512796e+01 8.908014790717183828e+00 3.419184858232816815e+00
-1.173841173153656214e+01 -1.474240151857063452e+01 -2.561567446405078385e+01 -1.474240151857063452e+01 -5.885795935060189521e+01 -1.493126729116458762e+01 -2.561567446405078385e+01 -1.493126729116458762e+01 -9.800479523595592823e+00
-1.448421572882232056e+01 -1.708608236333914121e+01 3.904876729445533812e+01 -1.708608236333914121e+01 -3.635106515064028088e+01 -9.322528426062540063e+00 3.904876729445533812e+01 -9.322528426062540063e+00 -2.827204686772264353e+01
-4.175572530162784801e+01 3.296597248177869144e+00 2.552499225707386188e+01 3.296597248177869144e+00 -3.791123562529721625e+01 2.048171917010268928e+01 2.552499225707386188e+01 2.048171917010268928e+01 -3.786204482059566345e+01
-7.319331328942067394e+00 4.552152045340698727e+00 -2.785105254954421738e+01 4.552152045340698727e+00 -9.267119285883111957e+00 -2.825120137904594042e+00 -2.785105254954421738e+01 -2.825120137904594042e+00 -7.750406266799346611e+01
1.567662281110418832e+01 -2.858631876904298252e+01 -1.265325647598499970e+01 -2.858631876904298252e+01 8.107268026730896793e+01 -6.852575881835194949e+00 -1.265325647598499970e+01 -6.852575881835194949e+00 1.822891589021172010e+01
-3.162843314651116700e+01 -2.782469472157722734e+01 2.081850787442360584e+01 -2.782469472157722734e+01 -1.906795024538738303e+01 -1.191723555571510751e+01 2.081850787442360584e+01 -1.191723555571510751e+01 -3.822155906176028850e+01
-7.736104179477089815e+01 -2.483070167716014964e+01 8.299167623405313776e+00 -2.483070167716014964e+01 -4.187143420425613272e+01 -4.007238471558737025e+00 8.299167623405313776e+00 -4.007238471558737025e+00 -1.237014956069543956e+02
-4.446969818732454627e+01 -7.007709473937388189e+00 1.066636614719895348e+00 -7.007709473937388189e+00 5.621247674794581428e+00 6.651043497069922594e+00 1.066636614719895348e+00 6.651043497069922594e+00 -1.428251440987266463e+01
-8.663907711415225421e+00 -1.046361043546492375e+01 2.548479664343376427e+01 -1.046361043546492375e+01 2.872987306606495483e+00 2.263523897421543296e+01 2.548479664343376427e+01 2.263523897421543296e+01 -5.757401222773748550e+00
1.505823569230599901e+01 -4.622564069260517527e+01 1.485631278386343901e+01 -4.622564069260517527e+01 2.319519475890289328e+01 -1.979591858834530171e+01 1.485631278386343901e+01 -1.979591858834530171e+01 -8.723719042343725860e+00
-2.276584863685555504e+01 2.672941699191878939e+01 -9.016644320813972158e+00 2.672941699191878939e+01 -3.521206156570199397e+01 1.944482464505062325e+01 -9.016644320813972158e+00 1.944482464505062325e+01 -1.485232429308775437e+01
-6.897640799139712442e+01 -7.504191350463749188e+00 -1.104607455510405956e+01 -7.504191350463749188e+00 -4.494488364427386529e+01 7.937316694615457635e+00 -1.104607455510405956e+01 7.937316694615457635e+00 -3.232425938846415647e+01
4.083093056513084740e+00 -2.174798767643674324e+01 1.361929930714089032e+01 -2.174798767643674324e+01 8.668892557598713466e+00 1.463221987362725685e+01 1.361929930714089032e+01 1.463221987362725685e+01 1.636690570250506349e+00
-8.803904843264810154e+01 5.189509429302442634e+00 6.149167597870616397e+00 5.189509429302442634e+00 -8.589247053289676614e+01 -6.609391588231723347e+00 6.149167597870616397e+00 -6.609391588231723347e+00 -3.580994524743904606e+01
-4.681910020745559109e+01 -1.795374386377090303e+01 -1.045455524052647789e+01 -1.795374386377090303e+01 5.334580249960114884e+01 9.341530796991047936e+00 -1.045455524052647789e+01 9.341530796991047936e+00 -4.045639968742963077e+01
-2.541366794597871959e+01 -8.348542017481326738e+00 2.205302518354895014e+01 -8.348542017481326738e+00 -3.791470932074297195e+01 -9.535337631684303261e+00 2.205302518354895014e+01 -9.535337631684303261e+00 -2.415335530002115050e+01
-2.655647126945750713e+01 1.298791808081835697e+01 -1.301422293157579269e+01 1.298791808081835697e+01 -1.782730664554353028e+00 -1.392770639484813877e+01 -1.301422293157579269e+01 -1.392770639484813877e+01 -5.416800726820601852e+01
-2.029820316652914514e+01 1.902931302999388308e+01 -2.989221215077465388e+01 1.902931302999388308e+01 -4.123994389371593883e+01 -1.419749373293014116e+01 -2.989221215077465388e+01 -1.419749373293014116e+01 -5.583197147646585989e+01
-3.585432780187935542e+00 1.764360172968930840e+01 1.315324255691425037e+01 1.764360172968930840e+01 6.840511764846117337e+00 -5.211610101238218995e+00 1.315324255691425037e+01 -5.211610101238218995e+00 -2.117440038165563010e+01
-3.861373481069977487e+01 5.435789999501963621e+00 -4.502961200235319872e+00 5.435789999501963621e+00 -4.649344346079926993e+01 1.877783105994889468e+01 -4.502961200235319872e+00 1.877783105994889468e+01 -8.684446734769389309e+01
3.073046028050013234e+01 -2.657186054959160515e+01 -2.428521269691841677e+00 -2.657186054959160515e+01 -3.531762948577811301e+01 -1.063529068556870172e+01 -2.428521269691841677e+00 -1.063529068556870172e+01 -7.931547828288213964e+01
2.720467938908866401e+00 5.657067161778771336e+00 1.217802536715514172e+01 5.657067161778771336e+00 -1.315432746806451014e+01 -3.246311158987850121e+01 1.217802536715514172e+01 -3.246311158987850121e+01 1.390965972170171483e+01
-7.564754795390085462e+01 6.470847775161026938e+00 -1.946278185424000995e+01 6.470847775161026938e+00 3.068250598134235929e+01 -9.666398768105352701e+00 -1.946278185424000995e+01 -9.666398768105352701e+00 -1.874747347317891411e+01
2.497503979683732211e+01 5.502829263968485485e+00 1.511947526721177493e+00 5.502829263968485485e+00 3.472367296059483976e+01 -2.864593094618384406e+00 1.511947526721177493e+00 -2.864593094618384406e+00 2.057034688046872617e+01
2.114935789859069004e+01 -1.851159868036513956e+01 -2.456713584432214148e+01 -1.851159868036513956e+01 -4.850438578949555435e+00 2.349471378980347680e+01 -2.456713584432214148e+01 2.349471378980347680e+01 -1.132581678511669132e+01
-5.751647885087016299e+00 -9.577284125209397203e+00 -2.144529620037266326e+01 -9.577284125209397203e+00 -4.178800518391801688e+01 -1.154306528708644253e+00 -2.144529620037266326e+01 -1.154306528708644253e+00 9.254836063498768084e+00
6.391875129414690093e+01 3.990697682430827786e+00 -1.267984664958435204e+01 3.990697682430827786e+00 -5.924173281089007759e+00 2.242566771696653660e+01 -1.267984664958435204e+01 2.242566771696653660e+01 -6.506103300167103498e+01
-3.210300269723972377e+01 1.886003526775822392e+00 -3.764541777164511416e+01 1.886003526775822392e+00 -8.696692336498865927e+01 -4.767959738193719765e+00 -3.764541777164511416e+01 -4.767959738193719765e+00 -3.536014865892103387e+01
-8.592251235064274795e+00 -1.557259893848997656e+01 -3.095551452209338805e+01 -1.557259893848997656e+01 -6.901788519902345342e+01 2.455646021622185149e+00 -3.095551452209338805e+01 2.455646021622185149e+00 -1.636078085006661131e-01
1.149601129934385035e+01 -1.274672640755244757e+01 1.084127749279678454e+01 -1.274672640755244757e+01 5.275693299648432344e+01 -6.146156093302675316e+01 1.084127749279678454e+01 -6.146156093302675316e+01 2.908426602315092424e+01
-5.971021654395750744e+01 1.910517073997923987e+01 -3.754578580469804905e+01 1.910517073997923987e+01 -8.738306904117258966e+00 -1.812714587676164157e+01 -3.754578580469804905e+01 -1.812714587676164157e+01 2.728659559572440330e+01
1.595062499198559802e+00 -1.344660098846231389e+00 -2.195286026817915825e+01 -1.344660098846231389e+00 -5.203039691400582711e+01 6.156713645458772532e+00 -2.195286026817915825e+01 6.156713645458772532e+00 -4.006904526219889107e+01
2.792745315262326500e+00 5.496939968879885896e+00 -3.572793258019020612e+01 5.496939968879885896e+00 -7.636876793624702486e+01 -1.257310311981198758e+01 -3.572793258019020612e+01 -1.257310311981198758e+01 -5.622017452122654646e+01
-8.081663511275515077e+01 -1.563931974356616017e+01 1.383590189900544942e+01 -1.563931974356616017e+01 8.299428579839121412e+00 -2.667631620751762256e+01 1.383590189900544942e+01 -2.667631620751762256e+01 -2.705369910029395797e+01
-2.799951483638656313e+01 2.593607963577959197e+01 -2.855922771541466432e+01 2.593607963577959197e+01 -5.285252387338842084e+01 7.716086202304675901e+00 -2.855922771541466432e+01 7.716086202304675901e+00 -3.639488738338937424e+01
-4.699740114394177048e+00 -1.492946337588855421e+00 6.740842248153064098e+00 -1.492946337588855421e+00 -2.529968672558908693e+01 -2.503137843913366023e+00 6.740842248153064098e+00 -2.503137843913366023e+00 -5.428232655816245966e+01
5.424647387660858300e+00 1.717339436351603155e+01 4.583091136225332463e+01 1.717339436351603155e+01 -1.177507739441230505e+01 -2.584957388039612169e+01 4.583091136225332463e+01 -2.584957388039612169e+01 2.645417879262031491e+01
-8.762994472342101915e+01 1.515813210753652052e-01 1.569160395959290355e+01 1.515813210753652052e-01 -8.641121691427680673e+01 -8.950428656056867993e+00 1.569160395959290355e+01 -8.950428656056867993e+00 -4.759221608443290563e+01
-2.026712062696891437e+01 -2.495735055144279624e+00 -1.175743136616317308e+01 -2.495735055144279624e+00 -9.313120183298539700e+01 -3.114973428038386771e+01 -1.175743136616317308e+01 -3.114973428038386771e+01 -1.346800771030083155e+01
-1.744631895800719690e+01 7.530123549545431949e+00 -5.519934040620438687e+00 7.530123549545431949e+00 -2.721842945972037597e+01 1.458227558349635977e+01 -5.519934040620438687e+00 1.458227558349635977e+01 -3.391992565616029509e+01
2.326983815967137303e+01 -3.025146438217337419e+00 1.315856019076382211e+01 -3.025146438217337419e+00 -2.517517894609245133e+01 6.200480450195819948e-01 1.315856019076382211e+01 6.200480450195819948e-01 3.773970456929828021e+00
-2.892158628091679873e+01 1.193704143409102691e+01 -1.350030290311245018e+01 1.193704143409102691e+01 -7.989850183008873508e+00 2.543172403660559766e+01 -1.350030290311245018e+01 2.543172403660559766e+01 -5.151512051838113670e+00
7.820507586150479540e+01 -1.091858186130636676e+00 1.092005823005342080e+01 -1.091858186130636676e+00 -2.372397270923463353e+01 -9.437169854175909478e+00 1.092005823005342080e+01 -9.437169854175909478e+00 -3.076231054203272031e+00
2.765892222802757061e+01 -4.689472530854635579e+01 4.709632439200871090e+01 -4.689472530854635579e+01 -1.776329946844270680e+01 -7.790543459268702842e-01 4.709632439200871090e+01 -7.790543459268702842e-01 1.082930216770883014e+01
2.347867769670402183e+01 -1.396553046848583790e+01 -8.557617612617651304e+00 -1.396553046848583790e+01 -1.277055443648813693e+01 -1.276657064208165693e+01 -8.557617612617651304e+00 -1.276657064208165693e+01 -2.457247081275985323e+01
-1.859098877959980101e+01 1.994896689100128739e+01 -1.152823460287116752e+01 1.994896689100128739e+01 -3.427195683137383497e+01 -1.901965842795680572e+01 -1.152823460287116752e+01 -1.901965842795680572e+01 -7.497593412163574556e+01
-4.748418597207432867e+01 1.254907883090979581e+01 3.932105490716316609e+01 1.254907883090979581e+01 -6.873281967933068870e+01 2.261817631087009417e+01 3.932105490716316609e+01 2.261817631087009417e+01 -3.540877321401851674e+01
-3.612897308183887901e+01 1.075438582263601717e+01 -4.985442341936051491e+01 1.075438582263601717e+01 -5.728661399067568283e+01 5.473028933259076467e+00 -4.985442341936051491e+01 5.473028933259076467e+00 -5.578979437784592932e+01
4.924057882631842631e+01 2.278193157605236507e+01 8.494046934426409123e+00 2.278193157605236507e+01 3.711985218586012536e+01 8.640612542229135773e-01 8.494046934426409123e+00 8.640612542229135773e-01 -4.834869693369761912e+00
-3.413622183349929884e+01 5.037823414322375015e+01 -5.494141616228362501e+00 5.037823414322375015e+01 1.750937425837034311e+01 2.999147124516090912e+01 -5.494141616228362501e+00 2.999147124516090912e+01 -1.346246096009351412e+01