1.768499999999999872e+01 0.000000000000000000e+00 0.000000000000000000e+00 -8.837999999999999190e+00 1.532099999999999973e+01 0.000000000000000000e+00 -8.000000000000000167e-02 2.500000000000000139e-02 1.716499999999999915e+01
1.745299999999999940e+01 0.000000000000000000e+00 0.000000000000000000e+00 -8.830000000000000071e+00 1.523099999999999987e+01 0.000000000000000000e+00 9.600000000000000200e-02 9.800000000000000377e-02 1.682100000000000151e+01
1.746099999999999852e+01 0.000000000000000000e+00 0.000000000000000000e+00 -8.708999999999999631e+00 1.518699999999999939e+01 0.000000000000000000e+00 2.400000000000000050e-02 4.900000000000000189e-02 1.677599999999999980e+01
1.763299999999999912e+01 0.000000000000000000e+00 0.000000000000000000e+00 -8.791999999999999815e+00 1.519599999999999973e+01 0.000000000000000000e+00 -1.199999999999999956e-01 3.099999999999999978e-02 1.664999999999999858e+01
1.769099999999999895e+01 0.000000000000000000e+00 0.000000000000000000e+00 -8.852000000000000313e+00 1.529100000000000037e+01 0.000000000000000000e+00 -1.029999999999999943e-01 3.699999999999999817e-02 1.715500000000000114e+01
1.750199999999999889e+01 0.000000000000000000e+00 0.000000000000000000e+00 -8.819000000000000838e+00 1.515499999999999936e+01 0.000000000000000000e+00 8.599999999999999312e-02 1.499999999999999944e-02 1.673999999999999844e+01
1.768299999999999983e+01 0.000000000000000000e+00 0.000000000000000000e+00 -8.862999999999999545e+00 1.530599999999999916e+01 0.000000000000000000e+00 -8.999999999999999320e-03 5.199999999999999761e-02 1.702199999999999847e+01
1.754400000000000048e+01 0.000000000000000000e+00 0.000000000000000000e+00 -8.698999999999999844e+00 1.516799999999999926e+01 0.000000000000000000e+00 -2.000000000000000042e-03 4.800000000000000100e-02 1.671000000000000085e+01
1.759799999999999898e+01 0.000000000000000000e+00 0.000000000000000000e+00 -8.792999999999999261e+00 1.512500000000000000e+01 0.000000000000000000e+00 3.000000000000000062e-03 -1.350000000000000089e-01 1.674800000000000111e+01
1.745299999999999940e+01 0.000000000000000000e+00 0.000000000000000000e+00 -8.644000000000000128e+00 1.518299999999999983e+01 0.000000000000000000e+00 2.900000000000000147e-02 9.600000000000000200e-02 1.673100000000000165e+01
1.771000000000000085e+01 0.000000000000000000e+00 0.000000000000000000e+00 -8.871000000000000441e+00 1.525200000000000067e+01 0.000000000000000000e+00 -5.099999999999999672e-02 -8.999999999999999667e-02 1.703999999999999915e+01
1.752100000000000080e+01 0.000000000000000000e+00 0.000000000000000000e+00 -8.737000000000000099e+00 1.517800000000000082e+01 0.000000000000000000e+00 -2.000000000000000042e-02 -3.599999999999999728e-02 1.675300000000000011e+01
1.754299999999999926e+01 0.000000000000000000e+00 0.000000000000000000e+00 -8.781000000000000583e+00 1.519299999999999962e+01 0.000000000000000000e+00 6.500000000000000222e-02 -1.010000000000000064e-01 1.671600000000000108e+01
1.771999999999999886e+01 0.000000000000000000e+00 0.000000000000000000e+00 -8.872999999999999332e+00 1.538100000000000023e+01 0.000000000000000000e+00 -4.100000000000000172e-02 4.200000000000000261e-02 1.706899999999999906e+01
1.751500000000000057e+01 0.000000000000000000e+00 0.000000000000000000e+00 -8.628000000000000114e+00 1.516799999999999926e+01 0.000000000000000000e+00 -2.100000000000000130e-02 6.000000000000000125e-03 1.671300000000000097e+01
1.769399999999999906e+01 0.000000000000000000e+00 0.000000000000000000e+00 -8.769000000000000128e+00 1.532499999999999929e+01 0.000000000000000000e+00 -1.000000000000000021e-03 -2.599999999999999881e-02 1.699299999999999855e+01
1.755300000000000082e+01 0.000000000000000000e+00 0.000000000000000000e+00 -8.746999999999999886e+00 1.520400000000000063e+01 0.000000000000000000e+00 -8.899999999999999578e-02 -1.449999999999999900e-01 1.667899999999999849e+01
1.746000000000000085e+01 0.000000000000000000e+00 0.000000000000000000e+00 -8.714999999999999858e+00 1.525699999999999967e+01 0.000000000000000000e+00 3.599999999999999728e-02 1.299999999999999940e-02 1.672400000000000020e+01
1.768100000000000094e+01 0.000000000000000000e+00 0.000000000000000000e+00 -8.792999999999999261e+00 1.527500000000000036e+01 0.000000000000000000e+00 -4.000000000000000083e-03 -2.199999999999999872e-02 1.714799999999999969e+01
1.771300000000000097e+01 0.000000000000000000e+00 0.000000000000000000e+00 -8.826999999999999957e+00 1.519899999999999984e+01 0.000000000000000000e+00 -9.199999999999999845e-02 1.000000000000000021e-02 1.719900000000000162e+01
1.754500000000000171e+01 0.000000000000000000e+00 0.000000000000000000e+00 -8.881999999999999673e+00 1.519100000000000072e+01 0.000000000000000000e+00 1.000000000000000021e-03 4.700000000000000011e-02 1.679200000000000159e+01
1.751399999999999935e+01 0.000000000000000000e+00 0.000000000000000000e+00 -8.683999999999999275e+00 1.518800000000000061e+01 0.000000000000000000e+00 -2.100000000000000130e-02 8.000000000000000167e-02 1.673400000000000176e+01
1.755099999999999838e+01 0.000000000000000000e+00 0.000000000000000000e+00 -8.707000000000000739e+00 1.520100000000000051e+01 0.000000000000000000e+00 -1.600000000000000033e-02 8.100000000000000255e-02 1.670100000000000051e+01
1.757000000000000028e+01 0.000000000000000000e+00 0.000000000000000000e+00 -8.843999999999999417e+00 1.519299999999999962e+01 0.000000000000000000e+00 -4.100000000000000172e-02 -9.400000000000000022e-02 1.671499999999999986e+01
1.753999999999999915e+01 0.000000000000000000e+00 0.000000000000000000e+00 -8.773999999999999133e+00 1.519200000000000017e+01 0.000000000000000000e+00 8.400000000000000522e-02 -2.199999999999999872e-02 1.671600000000000108e+01
1.759600000000000009e+01 0.000000000000000000e+00 0.000000000000000000e+00 -8.743999999999999773e+00 1.535899999999999999e+01 0.000000000000000000e+00 -7.399999999999999634e-02 5.500000000000000028e-02 1.705999999999999872e+01
1.751099999999999923e+01 0.000000000000000000e+00 0.000000000000000000e+00 -8.746000000000000441e+00 1.516600000000000037e+01 0.000000000000000000e+00 -3.599999999999999728e-02 -9.500000000000000111e-02 1.667500000000000071e+01
1.746600000000000108e+01 0.000000000000000000e+00 0.000000000000000000e+00 -8.782999999999999474e+00 1.523600000000000065e+01 0.000000000000000000e+00 1.400000000000000029e-02 2.399999999999999911e-01 1.672299999999999898e+01
1.755600000000000094e+01 0.000000000000000000e+00 0.000000000000000000e+00 -8.676999999999999602e+00 1.516699999999999982e+01 0.000000000000000000e+00 -7.900000000000000078e-02 -0.000000000000000000e+00 1.677100000000000080e+01
1.770499999999999829e+01 0.000000000000000000e+00 0.000000000000000000e+00 -8.714000000000000412e+00 1.531199999999999939e+01 0.000000000000000000e+00 -4.200000000000000261e-02 -1.340000000000000080e-01 1.699399999999999977e+01
1.757600000000000051e+01 0.000000000000000000e+00 0.000000000000000000e+00 -8.740999999999999659e+00 1.514000000000000057e+01 0.000000000000000000e+00 2.000000000000000042e-03 8.599999999999999312e-02 1.670299999999999940e+01
1.752400000000000091e+01 0.000000000000000000e+00 0.000000000000000000e+00 -8.801000000000000156e+00 1.516399999999999970e+01 0.000000000000000000e+00 2.800000000000000058e-02 -1.899999999999999953e-02 1.669099999999999895e+01
1.748600000000000065e+01 0.000000000000000000e+00 0.000000000000000000e+00 -8.740999999999999659e+00 1.515700000000000003e+01 0.000000000000000000e+00 1.000000000000000021e-03 -1.200000000000000025e-02 1.670299999999999940e+01
1.734400000000000119e+01 0.000000000000000000e+00 0.000000000000000000e+00 -8.672000000000000597e+00 1.501999999999999957e+01 0.000000000000000000e+00 0.000000000000000000e+00 0.000000000000000000e+00 1.664000000000000057e+01
1.753300000000000125e+01 0.000000000000000000e+00 0.000000000000000000e+00 -8.851000000000000867e+00 1.518900000000000006e+01 0.000000000000000000e+00 -2.199999999999999872e-02 3.899999999999999994e-02 1.669200000000000017e+01
1.760300000000000153e+01 0.000000000000000000e+00 0.000000000000000000e+00 -8.771000000000000796e+00 1.536299999999999955e+01 0.000000000000000000e+00 4.200000000000000261e-02 9.099999999999999756e-02 1.705199999999999960e+01
1.749200000000000088e+01 0.000000000000000000e+00 0.000000000000000000e+00 -8.646000000000000796e+00 1.518599999999999994e+01 0.000000000000000000e+00 -7.199999999999999456e-02 1.260000000000000009e-01 1.677400000000000091e+01
1.753399999999999892e+01 0.000000000000000000e+00 0.000000000000000000e+00 -8.785000000000000142e+00 1.522600000000000087e+01 0.000000000000000000e+00 3.099999999999999978e-02 4.000000000000000083e-03 1.669500000000000028e+01
1.767099999999999937e+01 0.000000000000000000e+00 0.000000000000000000e+00 -8.788000000000000256e+00 1.529299999999999926e+01 0.000000000000000000e+00 -1.299999999999999940e-02 2.199999999999999872e-02 1.696699999999999875e+01
1.755300000000000082e+01 0.000000000000000000e+00 0.000000000000000000e+00 -8.779999999999999361e+00 1.517900000000000027e+01 0.000000000000000000e+00 -2.900000000000000147e-02 2.800000000000000058e-02 1.669099999999999895e+01
1.761299999999999955e+01 0.000000000000000000e+00 0.000000000000000000e+00 -8.766000000000000014e+00 1.511400000000000077e+01 0.000000000000000000e+00 -1.299999999999999940e-02 -1.499999999999999944e-01 1.676200000000000045e+01
1.766000000000000014e+01 0.000000000000000000e+00 0.000000000000000000e+00 -8.782999999999999474e+00 1.531099999999999994e+01 0.000000000000000000e+00 -2.500000000000000139e-02 6.300000000000000044e-02 1.701000000000000156e+01
1.750499999999999901e+01 0.000000000000000000e+00 0.000000000000000000e+00 -8.673000000000000043e+00 1.519999999999999929e+01 0.000000000000000000e+00 -4.100000000000000172e-02 -1.069999999999999979e-01 1.669600000000000151e+01
1.778200000000000003e+01 0.000000000000000000e+00 0.000000000000000000e+00 -8.960000000000000853e+00 1.521499999999999986e+01 0.000000000000000000e+00 -1.019999999999999934e-01 -7.299999999999999545e-02 1.696900000000000119e+01
1.776999999999999957e+01 0.000000000000000000e+00 0.000000000000000000e+00 -8.817999999999999616e+00 1.528400000000000070e+01 0.000000000000000000e+00 4.900000000000000189e-02 2.999999999999999889e-02 1.714000000000000057e+01
1.750600000000000023e+01 0.000000000000000000e+00 0.000000000000000000e+00 -8.743000000000000327e+00 1.519699999999999918e+01 0.000000000000000000e+00 -1.200000000000000025e-02 3.599999999999999728e-02 1.676599999999999824e+01
1.750700000000000145e+01 0.000000000000000000e+00 0.000000000000000000e+00 -8.803000000000000824e+00 1.519999999999999929e+01 0.000000000000000000e+00 1.799999999999999864e-02 2.299999999999999961e-02 1.677599999999999980e+01
1.756899999999999906e+01 0.000000000000000000e+00 0.000000000000000000e+00 -8.840999999999999304e+00 1.516900000000000048e+01 0.000000000000000000e+00 6.099999999999999867e-02 -5.399999999999999939e-02 1.663899999999999935e+01
1.755999999999999872e+01 0.000000000000000000e+00 0.000000000000000000e+00 -8.768000000000000682e+00 1.519100000000000072e+01 0.000000000000000000e+00 3.200000000000000067e-02 -3.200000000000000067e-02 1.668799999999999883e+01
1.746199999999999974e+01 0.000000000000000000e+00 0.000000000000000000e+00 -8.803000000000000824e+00 1.515900000000000070e+01 0.000000000000000000e+00 -5.099999999999999672e-02 3.500000000000000333e-02 1.676999999999999957e+01
1.766600000000000037e+01 0.000000000000000000e+00 0.000000000000000000e+00 -8.724999999999999645e+00 1.521700000000000053e+01 0.000000000000000000e+00 -2.299999999999999961e-02 3.500000000000000333e-02 1.713700000000000045e+01
1.758399999999999963e+01 0.000000000000000000e+00 0.000000000000000000e+00 -8.837999999999999190e+00 1.512100000000000044e+01 0.000000000000000000e+00 2.800000000000000058e-02 2.000000000000000042e-03 1.677299999999999969e+01
1.766199999999999903e+01 0.000000000000000000e+00 0.000000000000000000e+00 -8.784000000000000696e+00 1.528899999999999970e+01 0.000000000000000000e+00 1.130000000000000032e-01 -2.250000000000000056e-01 1.703999999999999915e+01
1.753999999999999915e+01 0.000000000000000000e+00 0.000000000000000000e+00 -8.733999999999999986e+00 1.518900000000000006e+01 0.000000000000000000e+00 -1.000000000000000021e-03 9.900000000000000466e-02 1.671300000000000097e+01
1.766499999999999915e+01 0.000000000000000000e+00 0.000000000000000000e+00 -8.856999999999999318e+00 1.532099999999999973e+01 0.000000000000000000e+00 1.700000000000000122e-02 1.049999999999999961e-01 1.700499999999999901e+01
1.763800000000000168e+01 0.000000000000000000e+00 0.000000000000000000e+00 -8.858999999999999986e+00 1.513899999999999935e+01 0.000000000000000000e+00 8.200000000000000344e-02 -1.200000000000000025e-02 1.668499999999999872e+01
1.755999999999999872e+01 0.000000000000000000e+00 0.000000000000000000e+00 -8.679000000000000270e+00 1.527999999999999936e+01 0.000000000000000000e+00 -1.049999999999999961e-01 2.199999999999999872e-02 1.719200000000000017e+01
1.755999999999999872e+01 0.000000000000000000e+00 0.000000000000000000e+00 -8.826999999999999957e+00 1.518800000000000061e+01 0.000000000000000000e+00 2.699999999999999969e-02 -5.700000000000000205e-02 1.666400000000000148e+01
1.756800000000000139e+01 0.000000000000000000e+00 0.000000000000000000e+00 -8.756999999999999673e+00 1.516699999999999982e+01 0.000000000000000000e+00 1.170000000000000068e-01 -9.199999999999999845e-02 1.676599999999999824e+01
1.768599999999999994e+01 0.000000000000000000e+00 0.000000000000000000e+00 -8.781000000000000583e+00 1.528100000000000058e+01 0.000000000000000000e+00 -4.200000000000000261e-02 5.299999999999999850e-02 1.706400000000000006e+01
1.773300000000000054e+01 0.000000000000000000e+00 0.000000000000000000e+00 -8.672000000000000597e+00 1.528400000000000070e+01 0.000000000000000000e+00 -7.000000000000000146e-03 -1.000000000000000021e-03 1.711599999999999966e+01
1.765500000000000114e+01 0.000000000000000000e+00 0.000000000000000000e+00 -8.775999999999999801e+00 1.533500000000000085e+01 0.000000000000000000e+00 -7.000000000000000666e-02 -5.000000000000000104e-03 1.701899999999999835e+01
1.754500000000000171e+01 0.000000000000000000e+00 0.000000000000000000e+00 -8.848000000000000753e+00 1.522100000000000009e+01 0.000000000000000000e+00 1.300000000000000044e-01 -2.299999999999999961e-02 1.668599999999999994e+01
1.747500000000000142e+01 0.000000000000000000e+00 0.000000000000000000e+00 -8.759999999999999787e+00 1.522899999999999920e+01 0.000000000000000000e+00 6.700000000000000400e-02 9.900000000000000466e-02 1.664300000000000068e+01
1.758200000000000074e+01 0.000000000000000000e+00 0.000000000000000000e+00 -8.739000000000000767e+00 1.515399999999999991e+01 0.000000000000000000e+00 -1.799999999999999864e-02 -3.500000000000000333e-02 1.666499999999999915e+01
1.776099999999999923e+01 0.000000000000000000e+00 0.000000000000000000e+00 -8.839000000000000412e+00 1.524799999999999933e+01 0.000000000000000000e+00 -7.699999999999999900e-02 -2.400000000000000050e-02 1.709299999999999997e+01
1.764699999999999847e+01 0.000000000000000000e+00 0.000000000000000000e+00 -8.819000000000000838e+00 1.528400000000000070e+01 0.000000000000000000e+00 -4.900000000000000189e-02 -1.099999999999999936e-02 1.710900000000000176e+01
1.755499999999999972e+01 0.000000000000000000e+00 0.000000000000000000e+00 -8.708999999999999631e+00 1.517999999999999972e+01 0.000000000000000000e+00 3.899999999999999994e-02 -1.600000000000000033e-02 1.669800000000000040e+01
1.768799999999999883e+01 0.000000000000000000e+00 0.000000000000000000e+00 -8.795999999999999375e+00 1.526500000000000057e+01 0.000000000000000000e+00 -6.700000000000000400e-02 6.600000000000000311e-02 1.717099999999999937e+01
1.776800000000000068e+01 0.000000000000000000e+00 0.000000000000000000e+00 -8.887000000000000455e+00 1.527200000000000024e+01 0.000000000000000000e+00 -1.059999999999999970e-01 -1.000000000000000021e-03 1.698300000000000054e+01
1.752599999999999980e+01 0.000000000000000000e+00 0.000000000000000000e+00 -8.753999999999999559e+00 1.513700000000000045e+01 0.000000000000000000e+00 2.000000000000000042e-03 -1.170000000000000068e-01 1.676899999999999835e+01
1.751099999999999923e+01 0.000000000000000000e+00 0.000000000000000000e+00 -8.756000000000000227e+00 1.525600000000000023e+01 0.000000000000000000e+00 -8.999999999999999667e-02 1.549999999999999989e-01 1.673400000000000176e+01
