-8.298309999999999853e-01 2.256749999999999812e+00 6.551620000000000221e-01 -6.804620000000000113e-01 2.409349999999999881e+00 9.122388000000000829e+00 -2.989571000000000200e+00 6.164410000000000167e+00 6.028839999999999755e-01 -2.924021000000000203e+00 6.177920000000000300e+00 9.196327999999999392e+00 -5.178880999999999624e+00 9.839629999999999654e+00 6.966949999999999532e-01 -5.233990999999999616e+00 1.007423000000000002e+01 9.189928000000000097e+00 -7.448890999999999707e+00 1.362068999999999974e+01 5.292489999999999695e-01 -7.440921000000000340e+00 1.391979000000000077e+01 9.117008000000000223e+00 1.406409000000000020e+00 1.704210000000000003e+00 7.389099999999999835e-02 -1.454500000000000064e-02 1.530586999999999920e+00 1.705404599999999959e+01 2.257569000000000159e+00 2.281080000000000219e+00 9.914089999999999847e-01 3.608338999999999963e+00 2.122759999999999980e+00 7.555169999999999941e-01 1.814669000000000088e+00 3.183390000000000164e+00 1.867847999999999953e+00 1.504288999999999987e+00 1.612360000000000015e+00 8.573257999999999157e+00 1.314559999999999895e-01 1.559749999999999970e+00 8.379538000000000153e+00 -3.281169999999999920e-01 6.387439999999999785e-01 7.442747999999999919e+00 2.275158999999999931e+00 2.285149999999999793e+00 9.529237999999999431e+00 3.645528999999999797e+00 2.156470000000000109e+00 9.341278000000000858e+00 1.899529000000000023e+00 3.142370000000000108e+00 1.050516799999999940e+01 1.724259100000000089e+01 5.642300000000000093e-01 1.612836799999999826e+01 -7.339379999999999793e-01 5.436530000000000307e+00 6.648600000000000343e-02 -2.181344999999999867e+00 5.365857000000000099e+00 1.700090000000000146e+01 3.513000000000000064e-03 6.233719999999999928e+00 8.899200000000000443e-01 1.355598999999999998e+00 6.216459999999999653e+00 6.476739999999999720e-01 -4.785119999999999929e-01 7.108480000000000132e+00 1.775498000000000021e+00 -7.343819999999999792e-01 5.472629999999999661e+00 8.577337999999999241e+00 -2.081250999999999962e+00 5.421199999999999797e+00 8.470667999999999864e+00 -2.513940999999999981e+00 4.518720000000000070e+00 7.482687999999999562e+00 1.009729999999999933e-01 6.157569999999999766e+00 9.424108000000000374e+00 1.468788999999999900e+00 6.065439999999999721e+00 9.324018000000000583e+00 -3.607299999999999951e-01 7.030380000000000074e+00 1.036586800000000075e+01 1.501304799999999950e+01 4.452980000000000160e+00 1.610326799999999992e+01 -3.098454999999999959e+00 9.284807000000000698e+00 1.713444300000000098e+01 -4.433745000000000047e+00 9.170826999999999174e+00 1.699082500000000095e+01 -2.214050999999999991e+00 9.988609999999999545e+00 7.652069999999999705e-01 -8.183559999999999723e-01 9.854219999999999757e+00 6.713000000000000078e-01 -2.684290999999999983e+00 1.084079000000000015e+01 1.778937999999999908e+00 -2.935690999999999828e+00 9.268409999999999371e+00 8.657887999999999806e+00 -4.288770999999999667e+00 9.331540000000000390e+00 8.406838000000000477e+00 -4.618110999999999855e+00 8.446899999999999409e+00 7.353807999999999900e+00 -2.038021000000000083e+00 1.021698999999999913e+01 9.379077999999999804e+00 -6.965419999999999945e-01 1.019848999999999961e+01 9.132018000000000413e+00 -2.432221000000000188e+00 1.106699000000000055e+01 1.039926799999999929e+01 1.273734800000000078e+01 8.192489999999999384e+00 1.610356799999999922e+01 -5.199091000000000129e+00 1.292498999999999931e+01 7.728300000000000447e-02 -6.656744999999999912e+00 1.292670700000000039e+01 1.701281699999999830e+01 -4.364491000000000120e+00 1.376979000000000042e+01 8.054270000000000040e-01 -2.968910999999999856e+00 1.385729000000000077e+01 5.591960000000000264e-01 -4.861561000000000021e+00 1.471668999999999983e+01 1.650967999999999991e+00 -5.172551000000000343e+00 1.305358999999999980e+01 8.685817999999999373e+00 -6.540911000000000364e+00 1.311988999999999983e+01 8.447848000000000468e+00 -6.979460999999999693e+00 1.220468999999999937e+01 7.502568000000000126e+00 -4.249190999999999718e+00 1.374249000000000009e+01 9.464347999999999317e+00 -2.931240999999999985e+00 1.385529000000000011e+01 9.202588000000000434e+00 -4.688291000000000430e+00 1.468238999999999983e+01 1.044486799999999960e+01 5.738604999999999734e+00 1.448617000000000044e+00 1.713470099999999974e+01 4.355834999999999901e+00 1.475187000000000026e+00 1.705478799999999850e+01 6.595768999999999771e+00 2.262950000000000017e+00 6.770589999999999664e-01 7.949958999999999776e+00 2.335939999999999905e+00 5.420789999999999775e-01 6.047659000000000340e+00 3.171499999999999986e+00 1.521377999999999897e+00 5.863228999999999580e+00 1.608179999999999943e+00 8.534318000000000737e+00 4.503369000000000177e+00 1.517209999999999948e+00 8.487368000000000023e+00 4.026138999999999690e+00 6.897729999999999695e-01 7.459168000000000021e+00 6.695248999999999562e+00 2.402579999999999938e+00 9.375218000000000274e+00 8.088938999999999879e+00 2.226469999999999949e+00 9.242978000000000804e+00 6.231789000000000023e+00 3.299459999999999837e+00 1.026114800000000038e+01 2.990638999999999825e+00 7.253230000000000510e-01 6.543817999999999913e+00 3.910209000000000046e+00 5.768860000000000099e-01 1.609176799999999830e+01 2.974619000000000124e+00 6.350190000000000001e-01 1.510586799999999918e+01 3.458905000000000118e+00 5.464076999999999629e+00 1.711503400000000141e+01 2.053255000000000052e+00 5.474466999999999750e+00 1.702253299999999925e+01 4.454908999999999786e+00 6.145620000000000083e+00 7.773400000000000309e-01 5.840619000000000227e+00 6.141169999999999796e+00 6.319879999999999942e-01 4.037518999999999636e+00 7.098629999999999995e+00 1.620687999999999906e+00 3.634008999999999823e+00 5.410590000000000011e+00 8.622028000000000247e+00 2.247428999999999899e+00 5.430460000000000065e+00 8.417808000000000845e+00 1.856389000000000067e+00 4.554389999999999716e+00 7.452247999999999983e+00 4.433398999999999646e+00 6.176669999999999661e+00 9.394458000000000197e+00 5.830608999999999931e+00 6.212839999999999918e+00 9.087077999999999989e+00 4.058158999999999850e+00 7.023410000000000153e+00 1.037486799999999931e+01 8.221699999999999564e-01 4.561420000000000030e+00 6.576848000000000027e+00 1.609709000000000056e+00 4.566799999999999748e+00 1.610746800000000079e+01 7.552929999999999922e-01 4.531010000000000204e+00 1.502396799999999999e+01 1.383785000000000043e+00 9.245127000000000095e+00 1.716358699999999970e+01 -2.387500000000000039e-02 9.170377000000000223e+00 1.706149600000000177e+01 2.203958999999999779e+00 9.964539999999999509e+00 8.393350000000000533e-01 3.572239000000000164e+00 9.932560000000000500e+00 6.642059999999999631e-01 1.747848999999999986e+00 1.087008999999999936e+01 1.752928000000000042e+00 1.397788999999999948e+00 9.143779999999999575e+00 8.732267999999999475e+00 7.544099999999999417e-02 9.292350000000000776e+00 8.456697999999999382e+00 -3.983709999999999751e-01 8.414320000000000022e+00 7.529968000000000217e+00 2.322458999999999829e+00 9.965880000000000294e+00 9.407667999999999253e+00 3.703098999999999918e+00 9.823100000000000165e+00 9.307817999999999259e+00 1.897208999999999923e+00 1.086419000000000068e+01 1.041586799999999968e+01 -1.380171000000000037e+00 8.397840000000000416e+00 6.524207999999999785e+00 -3.847019999999999884e-01 8.295379999999999754e+00 1.609646800000000155e+01 -1.384420999999999902e+00 8.344820000000000348e+00 1.514256800000000069e+01 -7.312739999999999796e-01 1.293998999999999988e+01 1.481409999999999949e-01 -2.229635000000000034e+00 1.296860700000000044e+01 1.708321300000000065e+01 8.947999999999999357e-03 1.383428999999999931e+01 8.740660000000000096e-01 1.369818999999999898e+00 1.385238999999999976e+01 6.775989999999999513e-01 -4.572240000000000193e-01 1.482079000000000057e+01 1.736858000000000013e+00 -7.263910000000000089e-01 1.305298999999999943e+01 8.628427999999999543e+00 -2.117621000000000198e+00 1.303439000000000014e+01 8.423137999999999792e+00 -2.648601000000000205e+00 1.221598999999999968e+01 7.428257999999999583e+00 1.206559999999999994e-01 1.380298999999999943e+01 9.377558000000000504e+00 1.480828999999999951e+00 1.380828999999999951e+01 9.219867999999999952e+00 -3.410710000000000131e-01 1.466958999999999946e+01 1.034976799999999919e+01 -3.721480999999999817e+00 1.234088999999999992e+01 6.554777999999999771e+00 -2.602621000000000073e+00 1.197348999999999997e+01 1.611536800000000014e+01 -3.585990999999999929e+00 1.213809000000000005e+01 1.517056799999999939e+01 1.019351900000000022e+01 1.573460000000000081e+00 9.926200000000000301e-02 8.766434999999999533e+00 1.550707000000000058e+00 1.702468000000000004e+01 1.102461899999999950e+01 2.385060000000000180e+00 8.387569999999999748e-01 1.236931900000000084e+01 2.444869999999999877e+00 6.161799999999999500e-01 1.061101900000000064e+01 3.216120000000000090e+00 1.823847999999999914e+00 1.035191900000000054e+01 1.356230000000000047e+00 8.681177999999999173e+00 8.970629000000000630e+00 1.496599999999999930e+00 8.479988000000000525e+00 8.464218999999999937e+00 7.228609999999999758e-01 7.412898000000000209e+00 1.115231900000000032e+01 2.300170000000000048e+00 9.385707999999999274e+00 1.250621899999999975e+01 2.296269999999999811e+00 9.115538000000000807e+00 1.070981899999999953e+01 3.228670000000000151e+00 1.033706800000000037e+01 7.370308999999999777e+00 8.702959999999999585e-01 6.637888000000000233e+00 8.464828999999999937e+00 6.195669999999999789e-01 1.605366799999999827e+01 7.411049000000000220e+00 7.148940000000000294e-01 1.512856799999999957e+01 7.928205000000000169e+00 5.467937000000000047e+00 1.704852800000000101e+01 6.573014999999999830e+00 5.384636999999999674e+00 1.702336700000000036e+01 8.892338999999999771e+00 6.171619999999999884e+00 6.511090000000000488e-01 1.029741899999999966e+01 6.075960000000000250e+00 4.484630000000000005e-01 8.596448999999999785e+00 7.001109999999999722e+00 1.688728000000000007e+00 8.046169000000000793e+00 5.281030000000000335e+00 8.771967999999999321e+00 6.645519000000000176e+00 5.298630000000000173e+00 8.487868000000000634e+00 6.238078999999999930e+00 4.383040000000000269e+00 7.478968000000000060e+00 8.823748999999999398e+00 6.184479999999999755e+00 9.463647999999999172e+00 1.020031900000000036e+01 6.254819999999999602e+00 9.263707999999999387e+00 8.416048999999999225e+00 7.178289999999999615e+00 1.035356799999999922e+01 5.260208999999999691e+00 4.506899999999999906e+00 6.568448000000000064e+00 5.993699000000000332e+00 4.461610000000000298e+00 1.626846799999999860e+01 5.061129000000000211e+00 4.537759999999999572e+00 1.522986799999999974e+01 5.848228999999999900e+00 9.106830000000000425e+00 8.439599999999999880e-02 4.323834999999999873e+00 9.141287000000000162e+00 1.709428099999999873e+01 6.709038999999999753e+00 9.953649999999999665e+00 7.408360000000000500e-01 8.072039000000000186e+00 9.937279999999999447e+00 5.357300000000000395e-01 6.203869000000000078e+00 1.091219000000000072e+01 1.626797999999999966e+00 5.866919000000000217e+00 9.229070000000000107e+00 8.542007999999999157e+00 4.518328999999999596e+00 9.167730000000000601e+00 8.401707999999999288e+00 3.979299000000000142e+00 8.331459999999999866e+00 7.481308000000000291e+00 6.674528999999999712e+00 9.948000000000000398e+00 9.442907999999999191e+00 8.027198999999999529e+00 9.953630000000000422e+00 9.198157999999999390e+00 6.236669000000000018e+00 1.081598999999999933e+01 1.034486799999999995e+01 3.100909000000000137e+00 8.342299999999999827e+00 6.475868000000000180e+00 3.972589000000000148e+00 8.205659999999999954e+00 1.611816800000000072e+01 3.109649000000000107e+00 8.268919999999999604e+00 1.507696800000000081e+01 3.592678999999999956e+00 1.312439000000000000e+01 8.780699999999999616e-02 2.138304999999999900e+00 1.314450700000000083e+01 1.707123299999999944e+01 4.419148999999999994e+00 1.387939000000000078e+01 8.422570000000000334e-01 5.788819000000000159e+00 1.378749000000000002e+01 6.908659999999999801e-01 4.000018999999999991e+00 1.475488999999999962e+01 1.832858000000000098e+00 3.567899000000000154e+00 1.289019000000000048e+01 8.722848000000000823e+00 2.248879000000000072e+00 1.297148999999999930e+01 8.399767999999999901e+00 1.764418999999999960e+00 1.198978999999999928e+01 7.487648000000000081e+00 4.429039000000000392e+00 1.360848999999999975e+01 9.495227999999999113e+00 5.811009000000000313e+00 1.353499000000000052e+01 9.250018000000000740e+00 4.079309000000000296e+00 1.462688999999999950e+01 1.035456800000000044e+01 7.670789999999999553e-01 1.215828999999999915e+01 6.563588000000000200e+00 1.892409000000000008e+00 1.223939000000000021e+01 1.604416799999999910e+01 8.384530000000000038e-01 1.217229000000000028e+01 1.511206800000000072e+01 1.463891899999999957e+01 1.520569999999999977e+00 2.574020000000000197e-01 1.330311900000000058e+01 1.641159999999999952e+00 4.415999999999999787e-03 1.552531899999999965e+01 2.362049999999999983e+00 9.291089999999999627e-01 1.507641899999999957e+01 3.316139999999999866e+00 1.802678000000000003e+00 1.472731899999999960e+01 1.444739999999999913e+00 8.596728000000000591e+00 1.335911899999999974e+01 1.518170000000000019e+00 8.401517999999999375e+00 1.283861899999999956e+01 6.043370000000000131e-01 7.545317999999999969e+00 1.560961900000000036e+01 2.246109999999999829e+00 9.329688000000000869e+00 1.510571900000000056e+01 3.214519999999999822e+00 1.024840799999999952e+01 1.176981900000000003e+01 7.565370000000000150e-01 6.635588000000000264e+00 1.273691900000000032e+01 7.805130000000000123e-01 1.623486799999999874e+01 1.183011899999999983e+01 7.632069999999999688e-01 1.518566799999999972e+01 1.250281900000000057e+01 5.318299999999999805e+00 1.661999999999999936e-02 1.107395499999999977e+01 5.263607000000000369e+00 1.691169299999999964e+01 1.336161899999999925e+01 6.063480000000000203e+00 7.353690000000000504e-01 1.282741900000000079e+01 6.937400000000000233e+00 1.714668000000000081e+00 1.242261899999999919e+01 5.498199999999999754e+00 8.727097999999999800e+00 1.104981899999999939e+01 5.496319999999999872e+00 8.555528000000000688e+00 1.060541899999999949e+01 4.491719999999999935e+00 7.713368000000000002e+00 1.335711900000000085e+01 6.246080000000000076e+00 9.373578000000000188e+00 1.295711900000000050e+01 7.163759999999999906e+00 1.033616800000000069e+01 9.699519000000000446e+00 4.562700000000000422e+00 6.650377999999999901e+00 1.062781900000000057e+01 4.406270000000000131e+00 1.594966800000000084e+01 9.589209000000000316e+00 4.571310000000000429e+00 1.502596800000000066e+01 1.026685499999999962e+01 9.301007000000000247e+00 1.711256399999999900e+01 8.910994999999999777e+00 9.220897000000000787e+00 1.691897399999999863e+01 1.112771900000000080e+01 1.005302999999999969e+01 7.383220000000000338e-01 1.058211900000000050e+01 1.088898999999999972e+01 1.679567999999999950e+00 1.028601899999999958e+01 9.343870000000000786e+00 8.675917999999999353e+00 8.956308999999999187e+00 9.263529999999999376e+00 8.461228000000000193e+00 8.562979000000000340e+00 8.275299999999999656e+00 7.537957999999999714e+00 1.113361899999999949e+01 1.015319000000000038e+01 9.414647999999999683e+00 1.068591900000000017e+01 1.101309000000000005e+01 1.037956800000000079e+01 7.477788999999999575e+00 8.390639999999999432e+00 6.627017999999999631e+00 8.582228999999999886e+00 8.377299999999999969e+00 1.588496800000000064e+01 7.451618999999999993e+00 8.341160000000000352e+00 1.507476800000000061e+01 7.943578999999999724e+00 1.292398999999999987e+01 8.313700000000000256e-02 6.501854999999999940e+00 1.299850700000000003e+01 1.709022699999999872e+01 8.901448999999999501e+00 1.359149000000000029e+01 7.916760000000000463e-01 8.474838999999999345e+00 1.448329000000000022e+01 1.770197999999999938e+00 8.070798999999999168e+00 1.284938999999999965e+01 8.705828000000000344e+00 6.707938999999999652e+00 1.277599000000000018e+01 8.445567999999999742e+00 6.312299000000000326e+00 1.195259000000000071e+01 7.455607999999999791e+00 8.890069000000000443e+00 1.374099000000000004e+01 9.415687999999999391e+00 8.493048999999999182e+00 1.476449000000000034e+01 1.028116799999999920e+01 5.294248999999999761e+00 1.215508999999999951e+01 6.532648000000000010e+00 6.065738999999999770e+00 1.217268999999999934e+01 1.609506800000000126e+01 5.157409000000000354e+00 1.220088999999999935e+01 1.508996800000000071e+01 1.628401900000000069e+01 6.797900000000000054e-01 6.557868000000000031e+00 1.624501899999999921e+01 6.082640000000000269e-01 1.512556799999999946e+01 1.412471900000000069e+01 4.584220000000000184e+00 6.560037999999999592e+00 1.401551899999999939e+01 4.593160000000000132e+00 1.516186800000000012e+01 1.194271900000000031e+01 8.408889999999999532e+00 6.548668000000000156e+00 1.188491900000000001e+01 8.340270000000000294e+00 1.505596800000000002e+01 9.685648999999999731e+00 1.219899000000000022e+01 6.555267999999999873e+00 9.564418999999999116e+00 1.205898999999999965e+01 1.509236800000000045e+01 2.272718999999999934e+00 5.202470000000000150e-01 2.806738000000000177e+00 1.131580000000000030e+00 8.072890000000000343e-01 3.517358000000000207e+00 4.232090000000000019e-01 1.952269999999999950e+00 3.444177999999999962e+00 -8.209785999999999362e+00 1.532039200000000001e+01 4.504188000000000081e+00 2.397459000000000007e+00 4.677060000000000106e-01 1.151886799999999944e+01 1.266988999999999921e+00 8.331849999999999534e-01 1.230416800000000066e+01 6.058449999999999669e-01 2.034510000000000041e+00 1.218576799999999949e+01 -8.121456000000000230e+00 1.529321299999999972e+01 1.322986799999999974e+01 -3.605000000000000131e-03 4.273109999999999964e+00 2.930077999999999960e+00 7.845790000000000264e-01 3.140010000000000190e+00 2.723777999999999810e+00 -1.015041000000000082e+00 4.684510000000000396e+00 3.803338000000000108e+00 -1.660930999999999935e+00 5.829769999999999897e+00 3.549478000000000133e+00 -1.595601000000000047e+00 3.847519999999999829e+00 4.701538000000000217e+00 1.638779999999999959e-01 4.317120000000000068e+00 1.149286799999999964e+01 8.505439999999999667e-01 3.135800000000000143e+00 1.139506800000000020e+01 -9.985009999999999719e-01 4.537180000000000213e+00 1.218376800000000060e+01 -1.614560999999999913e+00 5.794819999999999638e+00 1.208136799999999944e+01 -1.618560999999999916e+00 3.684439999999999937e+00 1.306836799999999954e+01 -2.194681000000000104e+00 8.155680000000000263e+00 2.935707999999999984e+00 -1.491041000000000061e+00 6.975909999999999833e+00 2.808127999999999957e+00 -3.266471000000000124e+00 8.448520000000000252e+00 3.672368000000000077e+00 -3.964590999999999976e+00 9.633210000000000051e+00 3.506247999999999809e+00 -3.786090999999999873e+00 7.608900000000000219e+00 4.558758000000000088e+00 -1.990221000000000018e+00 8.174920000000000186e+00 1.158176800000000028e+01 -1.298980999999999941e+00 6.987739999999999618e+00 1.135696800000000017e+01 -3.146600999999999981e+00 8.524810000000000443e+00 1.225896799999999942e+01 -3.593300999999999856e+00 9.792619999999999436e+00 1.209686800000000062e+01 -3.781941000000000219e+00 7.744760000000000311e+00 1.329816800000000043e+01 -4.348751000000000033e+00 1.191948999999999970e+01 2.885807999999999929e+00 -3.744901000000000035e+00 1.072039000000000009e+01 2.691987999999999825e+00 -5.481791000000000302e+00 1.233759000000000050e+01 3.597008000000000205e+00 -6.141670999999999658e+00 1.352718999999999916e+01 3.431097999999999981e+00 -6.026481000000000421e+00 1.145628999999999920e+01 4.500308000000000419e+00 -4.244590999999999781e+00 1.202739000000000047e+01 1.137756800000000013e+01 -3.495570999999999984e+00 1.090348999999999968e+01 1.132126799999999989e+01 -5.348170999999999786e+00 1.227408999999999928e+01 1.223596799999999973e+01 -5.865770999999999624e+00 1.357368999999999915e+01 1.222486800000000073e+01 -5.897501000000000104e+00 1.132689000000000057e+01 1.308466800000000063e+01 -5.903700999999999866e+00 1.464838999999999913e+01 2.603727999999999820e+00 -5.702651000000000359e+00 1.462058999999999997e+01 1.140726800000000019e+01 6.571058999999999983e+00 5.211170000000000524e-01 2.843738000000000099e+00 5.544609000000000343e+00 9.369330000000000158e-01 3.672158000000000033e+00 4.940519000000000105e+00 2.115209999999999813e+00 3.420148000000000188e+00 4.988228999999999580e+00 2.167679999999999885e-01 4.672328000000000259e+00 6.861818999999999669e+00 4.862259999999999915e-01 1.161126800000000081e+01 5.752508999999999872e+00 8.395730000000000137e-01 1.226106799999999986e+01 5.087429000000000201e+00 1.994459999999999900e+00 1.197016799999999925e+01 -3.688533000000000062e+00 1.532763300000000051e+01 1.321676800000000007e+01 4.645578999999999681e+00 4.456360000000000099e+00 2.919248000000000065e+00 5.203279000000000210e+00 3.201290000000000191e+00 2.603127999999999886e+00 3.511499000000000148e+00 4.683729999999999727e+00 3.729697999999999958e+00 2.848059000000000118e+00 5.844269999999999854e+00 3.364838000000000218e+00 2.818909000000000109e+00 3.862979999999999858e+00 4.617537999999999698e+00 4.645788999999999724e+00 4.347209999999999575e+00 1.149036800000000014e+01 5.276158999999999821e+00 3.145589999999999886e+00 1.126536800000000049e+01 3.635298999999999836e+00 4.657879999999999576e+00 1.231846799999999931e+01 2.952498999999999985e+00 5.869170000000000442e+00 1.222496800000000050e+01 2.944579000000000057e+00 3.707320000000000171e+00 1.311016799999999982e+01 2.459458999999999840e+00 8.184659999999999158e+00 3.009837999999999791e+00 3.131009000000000153e+00 6.978259999999999685e+00 2.691127999999999965e+00 1.292448999999999959e+00 8.469290000000000873e+00 3.700387999999999789e+00 6.333210000000000228e-01 9.700870000000000104e+00 3.571127999999999858e+00 7.117059999999999498e-01 7.507019999999999804e+00 4.518627999999999645e+00 2.237188999999999872e+00 8.010519999999999641e+00 1.142976799999999926e+01 3.065008999999999872e+00 6.919059999999999988e+00 1.135576799999999942e+01 1.286988999999999939e+00 8.523049999999999571e+00 1.228776799999999980e+01 6.415689999999999449e-01 9.713749999999999218e+00 1.209606800000000071e+01 6.909819999999999851e-01 7.745750000000000135e+00 1.325446799999999925e+01 7.890300000000000091e-02 1.194988999999999990e+01 2.849168000000000145e+00 7.496770000000000378e-01 1.076989000000000019e+01 2.711158000000000179e+00 -1.044181000000000026e+00 1.228468999999999944e+01 3.604578000000000060e+00 -1.727241000000000026e+00 1.347958999999999996e+01 3.393677999999999972e+00 -1.572281000000000040e+00 1.149438999999999922e+01 4.616238000000000063e+00 2.497719999999999940e-01 1.204368999999999978e+01 1.163816800000000029e+01 9.550319999999999920e-01 1.082469000000000037e+01 1.138196800000000053e+01 -8.738709999999999534e-01 1.230128999999999984e+01 1.234366799999999920e+01 -1.683961000000000041e+00 1.341718999999999973e+01 1.204686799999999991e+01 -1.462420999999999971e+00 1.154458999999999946e+01 1.333186800000000005e+01 -1.486121000000000025e+00 1.467418999999999940e+01 2.640067999999999859e+00 -1.305220999999999965e+00 1.456528999999999918e+01 1.132426800000000000e+01 1.118721900000000069e+01 4.085489999999999955e-01 3.083117999999999803e+00 1.007198900000000030e+01 7.804079999999999906e-01 3.752428000000000097e+00 9.342798999999999410e+00 2.000249999999999861e+00 3.551417999999999964e+00 9.482839000000000240e+00 3.221600000000000158e-02 4.714258000000000060e+00 1.127661900000000017e+01 4.011680000000000246e-01 1.147276800000000030e+01 1.013954900000000059e+01 7.661040000000000072e-01 1.222086799999999940e+01 9.436239000000000487e+00 1.927780000000000049e+00 1.200746799999999936e+01 8.212669999999999693e-01 1.526448700000000080e+01 1.320036799999999921e+01 8.899679000000000784e+00 4.274610000000000021e+00 2.972738000000000103e+00 9.625818999999999903e+00 3.141039999999999832e+00 2.787387999999999977e+00 7.831119000000000163e+00 4.712010000000000254e+00 3.680607999999999880e+00 7.263978999999999964e+00 5.904690000000000438e+00 3.454518000000000200e+00 7.307968999999999937e+00 3.944640000000000146e+00 4.737978000000000023e+00 8.970098999999999378e+00 4.287079999999999558e+00 1.158836799999999911e+01 9.705859000000000236e+00 3.109360000000000124e+00 1.134276799999999952e+01 7.830489000000000033e+00 4.692940000000000111e+00 1.226566799999999979e+01 7.081178999999999668e+00 5.828520000000000145e+00 1.199176800000000043e+01 7.255619000000000263e+00 3.910670000000000091e+00 1.322146799999999978e+01 6.838949000000000389e+00 8.179449999999999221e+00 2.784168000000000198e+00 7.607378999999999891e+00 6.932529999999999859e+00 2.618367999999999807e+00 5.838778999999999719e+00 8.497909999999999187e+00 3.631098000000000159e+00 5.171279000000000181e+00 9.753800000000000026e+00 3.570828000000000113e+00 5.203699000000000296e+00 7.663660000000000139e+00 4.630247999999999919e+00 6.738408999999999871e+00 8.151719999999999189e+00 1.151086800000000032e+01 7.408128999999999742e+00 6.999590000000000423e+00 1.131556800000000074e+01 5.623909000000000269e+00 8.525180000000000646e+00 1.225446799999999925e+01 4.872088999999999892e+00 9.697119999999999962e+00 1.195696799999999982e+01 5.121989000000000125e+00 7.718790000000000262e+00 1.326646799999999971e+01 4.510418999999999734e+00 1.192599000000000053e+01 2.880327999999999999e+00 5.266048999999999758e+00 1.080169000000000068e+01 2.655758000000000063e+00 3.476818999999999882e+00 1.222198999999999991e+01 3.693378000000000050e+00 2.871839000000000031e+00 1.345409000000000077e+01 3.537657999999999969e+00 2.869129000000000040e+00 1.144749000000000017e+01 4.615067999999999948e+00 4.664788999999999852e+00 1.208048999999999928e+01 1.159886799999999951e+01 5.204248999999999903e+00 1.081678999999999924e+01 1.128326799999999963e+01 3.577029000000000014e+00 1.232309000000000054e+01 1.239226799999999962e+01 2.782008999999999954e+00 1.346579000000000015e+01 1.207216799999999957e+01 2.932379000000000069e+00 1.150548999999999999e+01 1.329826800000000020e+01 3.056348999999999982e+00 1.461659000000000042e+01 2.834027999999999992e+00 3.086069000000000173e+00 1.452788999999999930e+01 1.129016799999999954e+01 1.554221899999999934e+01 5.198500000000000343e-01 2.806458000000000119e+00 1.455601899999999915e+01 8.533739999999999659e-01 3.688397999999999843e+00 1.382071900000000042e+01 2.080350000000000144e+00 3.591768000000000072e+00 1.400781899999999958e+01 5.065800000000000164e-02 4.640168000000000070e+00 1.564601900000000079e+01 5.532660000000000355e-01 1.143746800000000086e+01 1.449871899999999947e+01 8.476989999999999803e-01 1.210696800000000017e+01 1.381011900000000026e+01 2.025030000000000108e+00 1.195196800000000081e+01 5.085316999999999865e+00 1.529818900000000070e+01 1.303586800000000068e+01 1.339661899999999939e+01 4.333960000000000257e+00 2.990648000000000195e+00 1.402501900000000035e+01 3.142949999999999910e+00 2.744778000000000162e+00 1.226471899999999948e+01 4.566250000000000142e+00 3.715517999999999876e+00 1.153261900000000040e+01 5.714579999999999771e+00 3.404907999999999824e+00 1.165671900000000072e+01 3.754550000000000054e+00 4.647578000000000209e+00 1.351041900000000062e+01 4.331970000000000098e+00 1.153266799999999925e+01 1.408641899999999936e+01 3.140200000000000102e+00 1.118436799999999920e+01 1.246021900000000038e+01 4.754279999999999617e+00 1.227276799999999923e+01 1.185921899999999951e+01 5.958479999999999777e+00 1.212556799999999946e+01 1.181631900000000002e+01 3.961650000000000116e+00 1.318616800000000033e+01 1.116381900000000016e+01 8.085309999999999775e+00 2.774398000000000142e+00 1.183781899999999965e+01 6.852430000000000021e+00 2.686587999999999976e+00 1.018481899999999918e+01 8.454100000000000392e+00 3.694808000000000092e+00 9.580918999999999741e+00 9.697469999999999146e+00 3.566138000000000030e+00 9.645008999999999943e+00 7.672900000000000276e+00 4.728348000000000440e+00 1.116171899999999972e+01 8.148669999999999192e+00 1.138046800000000047e+01 1.195031900000000036e+01 7.052459999999999951e+00 1.130606799999999978e+01 1.007950899999999983e+01 8.549960000000000448e+00 1.218066800000000072e+01 9.370879000000000403e+00 9.711109999999999687e+00 1.198756799999999956e+01 9.446129000000000886e+00 7.728880000000000194e+00 1.316826799999999942e+01 8.939989000000000630e+00 1.197808999999999990e+01 2.906807999999999836e+00 9.628899000000000541e+00 1.078569000000000067e+01 2.698017999999999805e+00 7.810528999999999833e+00 1.233779000000000003e+01 3.679517999999999844e+00 7.143829000000000207e+00 1.352918999999999983e+01 3.480388000000000037e+00 7.274929000000000201e+00 1.152238999999999969e+01 4.652688000000000379e+00 9.007459000000000771e+00 1.208888999999999925e+01 1.161206800000000072e+01 9.651408999999999239e+00 1.088119000000000014e+01 1.125146799999999914e+01 7.865869000000000000e+00 1.235899000000000036e+01 1.228476799999999969e+01 7.270338999999999885e+00 1.360279000000000060e+01 1.207816799999999979e+01 7.275089000000000361e+00 1.149048999999999943e+01 1.317496799999999979e+01 7.410218999999999667e+00 1.460328999999999944e+01 2.620028000000000024e+00 7.435158999999999629e+00 1.466578999999999944e+01 1.120436800000000055e+01 1.473569999999999880e-01 3.319080000000000030e+00 6.359198000000000128e+00 -9.424810000000000132e-01 3.032750000000000057e+00 5.625008000000000230e+00 1.178219999999999962e-01 3.354389999999999983e+00 1.481396799999999914e+01 -9.364209999999999479e-01 2.954689999999999817e+00 1.404366800000000026e+01 -2.162230999999999792e+00 7.263429999999999609e+00 6.392027999999999821e+00 -3.237171000000000021e+00 6.837340000000000195e+00 5.584848000000000035e+00 -1.949200999999999961e+00 7.132979999999999876e+00 1.483036799999999999e+01 -3.212091000000000030e+00 6.928939999999999877e+00 1.421606799999999993e+01 -4.459271000000000207e+00 1.121639000000000053e+01 6.320908000000000193e+00 -5.462391000000000219e+00 1.068948999999999927e+01 5.488387999999999600e+00 -4.312991000000000241e+00 1.101359000000000066e+01 1.494646799999999942e+01 -5.387190999999999619e+00 1.063458999999999932e+01 1.418196799999999946e+01 -6.456110999999999933e+00 1.485959000000000074e+01 6.167267999999999972e+00 -7.575130999999999837e+00 1.451778999999999975e+01 5.425288000000000110e+00 2.719158999999999882e+00 1.852400000000000047e+00 5.884897999999999740e+00 4.346148999999999596e+00 3.46220999999999978