-1.411654678880073188e+05
-1.411648077155814681e+05
-1.411658745854643930e+05
-1.411655696804210311e+05
-1.411649793441448128e+05
-1.411645942414483288e+05
-1.411641518424849492e+05
-1.411651728374631784e+05
-1.411655038027607661e+05
-1.411661244325731823e+05
-1.411641753457258164e+05
-1.411662569391723373e+05
-1.411662283715843514e+05
-1.411636918802617292e+05
-1.411650439924464445e+05
-1.411653315457180724e+05
-1.411655823902893462e+05
-1.411655189324080129e+05
-1.411651351980939799e+05
-1.411637022617856856e+05
-1.411645753650754341e+05
-1.411659465205387096e+05
-1.411651591279128043e+05
-1.411659308000126912e+05
-1.411647586820391298e+05
-1.411638998591102718e+05
-1.411661019035106001e+05
-1.411652421839507297e+05
-1.411641133195336442e+05
-1.411638282174381311e+05
-1.411652469067986822e+05
-1.411652822346935573e+05
-1.411653124620815797e+05
-1.411637943328403344e+05
-1.411656077609791246e+05
-1.411652581920407538e+05
-1.411662879117814882e+05
-1.411647538430228597e+05
-1.411629405406681180e+05
-1.411671896178688039e+05
-1.411647946070969629e+05
-1.411653351496912946e+05
-1.411660177397168591e+05
-1.411651220169494627e+05
-1.411639059310289449e+05
-1.411648141652088088e+05
-1.411653955763486447e+05
-1.411654767298669904e+05
-1.411646540907719755e+05
-1.411661219545239874e+05
-1.411642555549144454e+05
-1.411648973324518593e+05
-1.411636944562465942e+05
-1.411667575301552133e+05
-1.411643246442899981e+05
-1.411648270821583865e+05
-1.411647020667169127e+05
-1.411659057035882724e+05
-1.411666390983401507e+05
-1.411639883055070241e+05
-1.411631518712036195e+05
-1.411652872637598484e+05
-1.411653482384065283e+05
-1.411651289986811171e+05
-1.411654950897216040e+05
-1.411653026182448957e+05
-1.411643387121630658e+05
-1.411645786871939781e+05
-1.411650420243134722e+05
-1.411647200465653441e+05
-1.411649648591422883e+05
-1.411662105668247095e+05
