1.035381785973798596e+00 1.230761474012123657e-01 -8.913398332211389108e-02 -1.596160514850798684e+00 -1.001642224840556983e+00 6.747757960445920078e-02 2.011465700616597463e+00 -8.985414937711981853e-01 -1.069443249249442340e+00 -1.624253932975139536e+00 5.173322240662520111e-01 6.070292790272316941e-01 -1.621106388224913819e-01 8.772625280288197658e-01 -2.917585264471781459e-01 2.873318577684786490e+00 -5.434530916822013502e-01 -8.094892715363716240e-01 -4.859781326432370818e-01 1.416889303670107791e+00 1.371773638549078189e+00 2.751507413143492453e-01 -6.642188455917023004e-01 3.693508267242307519e-01 -1.106448625888105525e-01 -1.122775132311839119e+00 -2.515171591022297704e-01 -1.084774224446834134e+00 9.823517504474880979e-02 -2.482955665748379781e-01 4.380070001152473469e-01 -9.855995682292929549e-01 -2.287409884432106466e+00 5.676183780720259753e-01 5.682210447028485101e-01 2.607859867648375518e-01 5.624242350362422815e-01 1.283897438997435358e+00 7.221200935700453627e-01 -5.017163706150413738e-01 1.883281799252961852e-01 7.502345947420517858e-01 2.173600507810802829e-01 -1.641880903485349319e-01 -5.766115834529605966e-01 1.011425787398602810e-01 4.297275330308840680e-01 7.532962646395922057e-01 8.400314085139356512e-01 -9.698186499414831463e-01 -1.420564953053315538e+00 6.045409651820522479e-01 6.432257865444922507e-01 5.658129492829321316e-01 -4.056008131916666315e-01 1.829612587427920101e-01 -2.181612065923614618e-01 -3.889349211225894831e-01 5.520981696663212340e-02 -1.337745085396619717e-02 -1.737986690715903837e+00 -9.014581534384553674e-01 -6.885471399354269328e-01 -3.514610894492169457e-01 9.228425344191603097e-01 8.444547347582491703e-01 3.457018178918684348e-01 -6.956613829707766206e-01 -8.684683260490185797e-01 6.621640197753483337e-01 6.583505592513040350e-01 8.100400018790432366e-01 -1.330350077872849202e+00 3.302376595397129022e-01 2.393434474258169242e+00 1.313857478171167381e+00 -1.629889277349870214e-01 3.254446086302445473e-01 -9.382902377097235291e-01 -7.896516663453547746e-01 -1.709250496748108361e+00 -9.124233951071072379e-01 1.353053434884321782e-01 -2.051601652723219482e-01 -2.849800695124489192e-01 6.785656024175973355e-02 2.469976735917354671e-01 -2.764254943670872988e-01 4.005033436427384852e-01 -1.297810707794504748e-01 -3.674106721183489563e-03 3.364561301596249998e-01 3.389886669828340859e-01 7.621382891421465411e-01 3.112968552054830029e-01 4.356858079893659585e-01 4.443612249932968883e-01 -9.086140483484610453e-01 -9.241316856507919564e-01 -1.681379736175939721e+00 -5.581428336981633098e-01 6.753465809935793596e-02 9.584682569874337643e-01 4.459383398027958467e-01 1.755902653245330569e+00 -3.515017128825231874e-01 6.883908168502989033e-01 3.199799855195353815e-01 3.649979487123597433e-01 -9.626401293217881072e-01 -7.826402674449576269e-01 1.239392668038024947e+00 2.418430227037736469e+00 1.459811303392597015e+00 -7.450949590977931081e-01 -4.339174030888551803e-01 -2.644672925754676940e-01 -6.700573071329644081e-01 5.123453119623979646e-01 1.477275780169581720e+00 -1.467680936599174091e+00 -1.610126234156694203e+00 8.859148051023865711e-02 -2.668507054029954917e-01 1.359512046559348264e-01 1.915389738185179769e-01 -4.764686497048399860e-01 -1.014624239995630228e+00 -6.641915918959397924e-01 1.497520133914336471e+00 1.304368049839085941e+00 6.864136383558341326e-01 2.916531112088517341e-01 4.169866873722748168e-02 9.177296382499892588e-03 1.303475362747696931e+00 -1.245186392380582596e+00 -1.363982681105740058e+00 6.776965694772474347e-02 -1.400999370599248228e-01 -8.318043919383981688e-01 -6.417957388479756942e-01 -1.196697953853780749e+00 -8.613299146419549357e-02 -9.231263842316297374e-01 -1.717975278936816619e-01 1.367218671812025610e+00 3.690196686096832157e-01 1.761159531203435324e-01 1.573736379665722218e-01 -3.293747972474601604e-01 -5.300051925957925958e-01 -7.482306767724993257e-01 8.558483222489786379e-02 -1.056342963339173546e-01 4.448003694495447635e-01 -2.224513496819112923e+00 1.756564969474425641e+00 1.034022186509724772e+00 1.363314708449222978e+00 -8.589675848620924592e-01 -4.819985788412441963e-01 -2.779398742542650846e-01 -9.779690476364807372e-01 -4.141631016471497007e-01 -5.680184417569917876e-01 -3.728804374358057339e-01 -4.459090292243343412e-01 -3.808914813279425382e-01 -9.037675184888173119e-01 -5.576491818503905851e-01 1.920501091692326523e-01 2.763277924388823359e-01 6.241214600356876918e-01 1.081624108593234546e+00 -4.971799158222798831e-01 -3.287052819289184025e-01 -2.371678311729610023e-01 1.145918148000234282e+00 1.570943647181083147e+00 1.349139701328698759e+00 7.322404706700611499e-01 1.367452127998368017e+00 -1.512835168270810327e+00 -5.441493464758307974e-01 -1.432067555327094954e+00 1.309920604685179679e-01 -3.901392259428850262e-01 7.224934177799234858e-01 7.508048654703642910e-01 -2.132879886796975377e+00 -1.534590302358019631e+00 -1.471565873797010537e-01 5.937145630955865672e-01 5.205702716552362830e-01 -4.980535767487027227e-02 9.492565078197247319e-02 6.052526465959245927e-01 7.888823922159089452e-01 -7.484713320482885290e-01 4.846488721989740123e-01 4.979543321584734006e-01 4.964651490843590143e-01 6.645320059826331782e-01 2.962651564408033678e-01 2.737278927072792634e-01 8.117446434158833712e-01 1.026785044733106611e+00 3.098709212743644970e-01 1.074514493543957672e+00 1.438780706236129303e+00 -3.215133915716794633e-01 -4.380095712186211632e-01 -2.280851513946176023e-01 -8.486667163052350471e-01 -1.648221758625855182e+00 -8.058300772147562741e-02 2.089088339913461045e-01 3.911548117755424547e-01 -1.375224059276739741e+00 8.414393447214372213e-01 2.524456359525823146e+00 -5.960223854839240554e-01 -2.183231861049118594e-01 -4.081364353389243527e-01 1.488324325587544905e+00 -6.966949665270507630e-01 3.155026661043717207e-01 -3.313699734655415896e-01 -4.630896561888496188e-01 1.195542499997587771e-01 1.685884309286865834e+00 -4.708358764334832913e-02 -5.228379848309422373e-01 -6.464972584773361897e-01 -3.716889881323792166e-01 5.537992116584381508e-01 -4.861617094241275083e-01 1.072180960121881937e-01 8.516836490040708973e-01 -7.578841414998300774e-01 -1.107612821495769673e+00 -5.702964393461930348e-02 -4.779197804490220025e-01 -4.208901365144026574e-01 -6.618416034122717173e-01 6.663924563839266346e-01 1.389887576038288941e+00 3.997906337875166138e-01 -1.669992833553982203e+00 -4.356981492855602767e-01 1.170345686934188140e-01 8.880236240895905686e-01 3.119180337805970149e-01 -2.977245147157815408e-01 6.744677778604089013e-01 4.094533544869930486e-01 7.348573396839312710e-02 1.511362440258288364e+00 -3.868214741493124498e-01 -2.834548909911011050e-01 -2.105975346872686893e-01 -3.394067283914166122e-01 1.917755153289090742e-01 2.141908573404468275e+00 9.957230306533570996e-01 4.209533856573985378e-01 -2.262565826751594678e-01 -9.025858393782112965e-02 -5.693086214299727388e-01 -1.033064193392640995e+00 -8.816771125216624760e-01 -1.199071596488488156e+00 -8.490631804454773501e-01 -7.862922626771263745e-01 1.281082595023781412e+00 -7.764284816938175071e-01 7.357906502086266620e-01 -3.457599248281166826e-01 1.041853767386369034e+00 -2.352148210502101600e-01 -1.490424917043952746e+00 -1.127665370928837563e-01 3.004812517531873506e-01 7.782436806757319081e-01 -7.639858840265709716e-01 -6.436973269032502110e-01 -5.618411087910606394e-01 8.811135266621218376e-01 8.188594006719077667e-01 -2.680565528853152690e-01 -2.052020742573151590e+00 9.349046087870821475e-02 -1.508399500730302767e-01 1.262195269639726947e+00 -4.854644261891484791e-01 -9.569893583268146431e-01 3.607653983383833363e-01 6.923364320877574418e-02 -3.647778622635610563e-02 3.418230513421292027e-01 6.908246233039533335e-02 6.403024420084631185e-02 -1.957324434212123487e-01 -5.980916094791715043e-01 -3.259439169054396956e-02 -1.275446736428376138e+00 -7.574105442583731751e-01 -1.008809432605407341e+00 1.478101618573251508e-01 6.975562861572792706e-01 -3.169759083375684461e-01 4.141841846948149941e-01 4.145096863819401345e-01 6.152372694378027695e-01 -2.460263107371077063e-01 3.639607656113622580e-01 9.068656980542658674e-01 1.493589945297120747e-01 -7.724371008163051222e-01 -1.075401524207924453e+00 -2.649429466996237603e-01 4.311174715147691322e-02 5.504968864851084165e-01 -7.777176329254489873e-02 9.816359552682176748e-01 -1.512475213798476270e+00 4.193191923530009690e-01 1.842333378480213835e+00 1.627676071565689497e+00 6.912925641179878955e-02 1.822225807434946221e+00 -8.710831381801897866e-01 6.630659628388830829e-01 2.358647959831109420e-01 3.021961777035228613e-01 1.542404913952397094e-01 4.418893662097098662e-01 -5.095978308971378656e-02 -2.000308140415584246e-01 -6.495059636453759389e-01 -1.599869074357191112e-01 1.441973502405734520e+00 3.197131049893332522e-01 5.225757322868128663e-01 -5.355176382292547999e-01 4.466916730913240152e-01 7.499913683628889327e-01 -6.261490321562792616e-01 1.712909691069723683e+00 6.711448838600886369e-01 -7.529697345111177054e-01 -5.440999812910534139e-01 -1.065857074263643289e+00 1.290745829943932499e+00 3.607664267797328628e-01 1.369734239352967231e+00 -2.899870362226187881e-01 -5.739777451568232047e-01 2.897756915252910903e-01 6.286347748980847250e-03 1.211427805082374576e+00 1.079148136044249195e+00 -6.813933019081204190e-01 -7.177276205662176389e-01 4.219854265516483904e-01 -1.075065738107303881e+00 2.772276786197180320e-01 -9.093370426171781817e-01 -1.343430823397477214e+00 4.105049357668839050e-01 -9.313009502983411458e-01 -3.130997128912029748e-01 -4.537760913275374897e-01 7.444886929222471750e-01 1.329360717294604699e+00 3.654237234310637183e-01 4.635653103130055741e-01 -5.855281699533555484e-01 1.028534937689326023e+00 7.345842885056319549e-01 2.050181889440197747e+00 -1.119835846934892132e+00 -4.791924766190610585e-01 -1.114371223824182966e+00 -2.322426255500785464e-02 1.977846981341925200e-02 -7.502952727816739609e-01 2.042978172007439697e-01 3.720720825350778971e-01 -1.143028742028739497e+00 3.099136015903698471e-01 -7.335666457902755011e-02 9.287416740000445925e-01 5.145600604086032759e-02 -8.889013987814115003e-01 1.276314226706701582e+00 6.449139730197400722e-01 2.105958377590419150e+00 3.493229598835512761e-01 3.902616104634786809e-01 9.985291328755402374e-02 -2.543885673501077860e-01 5.334335018344392720e-01 5.095885749249919883e-01 -6.264472801476419495e-01 -1.450309533764321479e+00 3.529646707022247032e-01 -1.676408764913003280e+00 1.283998226249688956e+00 -1.211426776641024938e+00 -1.005976076687461696e+00 -1.581385412202825913e+00 -2.916462720738774106e+00 7.992264553094465818e-01 1.442510348790187136e+00 3.404907055738174981e-01 -1.170172908787467714e+00 1.958687119000246113e-01 -1.839794156788233104e-01 1.706969928055533492e+00 -1.095613996270843743e-01 -3.768368513074342174e-01 -7.981825873396771742e-01 -9.320455418353985888e-02 4.169933722410467114e-01 9.260584705191298172e-01 -6.940205047976070185e-01 -4.356420992320110264e-01 3.951323086948362040e-02 -3.902549255947067586e-01 4.505611836689175642e-01 8.303938846275226160e-01 -1.901073834599770456e-03 5.042514785416242207e-01 -5.215750588537236831e-01 3.314810451312905082e-01 6.925302932821431057e-01 1.115244370529931306e+00 -4.108474067362762883e-01 -1.378430225183888691e-01 3.408506600461518321e-01 -1.250428872159794036e+00 -2.109622199898107731e+00 6.098343528080653053e-01 4.478939210289205053e-01 5.176309862782895177e-01 -9.444284899043725590e-01 1.260209863614465853e+00 1.531796541432031145e+00 -2.325111001643724418e+00 -6.726572068645673974e-02 -2.646225872192462525e-01 3.772610833641139583e-01 8.920088343190057945e-01 9.155334017480754039e-01 -1.245807570955696358e-01 1.722618691629928867e+00 1.150928714255127633e-01 2.766661496428765230e-02 1.080804440837661723e-01 5.654730494169137034e-02 8.623043628206313871e-01 -7.620986941501898260e-01 -8.926958331404896141e-01 1.758341601905732687e-01 2.267281230339173170e-01 1.118707132553786954e+00 4.944576315700831559e-01 1.305868545768045508e-01 1.153396973493991257e-03 1.328463402217142930e-01 -1.526392082140269058e-01 -2.691415585090657925e-01 5.858428730063106604e-01 -7.426241287555556125e-01 -6.367450633804508930e-01 -8.649222602758512846e-01 -3.748977251429020385e-01 3.377776772937666205e-01 1.053762603993211533e+00 1.616331335039062234e+00 1.159172700112932164e+00 1.527283740790308375e+00 8.582846998060069676e-01 -4.980124390947216484e-01 6.698032821196313602e-01 -5.817219085187578242e-01 -4.101259551295834416e-01 3.746982075210938401e-01 -8.421777656103973664e-01 -4.756176144881068546e-01 -6.884118998979642523e-01 3.183997853859879545e-01 -2.965649470941903454e-01 -1.731451974381012171e+00 -1.637006091488593662e-01 -3.312671293305889386e-01 6.675839056873531518e-01 8.428462524875895978e-01 7.774605225880673043e-01 1.417639551634587158e-01 5.367461114212641604e-01 5.744873378455135453e-03 -8.825132353388275286e-01 -4.526365783122620612e-01 -7.824006406105179501e-01 -6.108298840344069669e-01 -8.574290366032009114e-01 -3.723569607888967403e-01 -6.594417355231516620e-01 -5.542969772716088706e-01 7.088598850299251408e-01 1.264648616479022492e+00 6.053673178063968541e-01 4.687712804243088782e-01 -8.312942850290329366e-02 -3.525193555978797244e-01 8.362925099877319135e-02 -7.807242812107898500e-01 -2.386169050344439102e-01 -1.900475281734346211e+00 -3.305153387040850599e-01 1.441488078088757563e+00 4.136571085031827133e-01 1.207297584622675918e-01 -9.243306890519253916e-01 -5.532675074807328341e-01 9.919882458925514956e-02 -1.332727320052279785e+00 3.007784713032005119e-01 -2.492129362586156249e-01 -5.485937557678095544e-01 -1.451130744181918342e+00 1.766661692423401875e-01 1.257555456491338042e+00 2.901844969617278780e-01 -3.535678515537220290e-02 -1.372756828479225755e+00 -1.277586408656065764e+00 -3.366546193400836162e-01 1.323769595897903883e+00 3.010252972270868743e-01 -1.686509087406703467e+00 1.474180171707506926e+00 2.154494124419299439e+00 2.996353587432017962e-01 -5.441884272471128048e-01 1.832065420046541104e-01 7.640625029071105301e-01 -1.683558489174911688e-01 -4.992995334436539645e-01 4.940318568513792363e-01 -1.186392457310850412e+00 -6.188177879961794803e-01 -2.967073862210998225e-01 1.561312808163441979e-01 -1.187568994214708962e+00 5.884581993581564641e-01 3.068658156510479795e-01 9.531892675403141890e-01 -2.598357069578750671e-03 -9.955569373754086238e-02 2.438958944815635133e-01 -7.939258685939869220e-02 3.355762985851050706e-01 5.377359862201833707e-01 -1.611989255661361309e-01 7.833946291748353219e-02 -5.808554466817816841e-01 -1.624114579172278999e-02 -1.092002624471981154e+00 1.067678443893654849e+00 -6.271363358518246001e-01 -4.154825918985922129e-01 -4.324477604003817421e-01 -5.853589913513583820e-01 1.081433846943572030e+00 2.961011200455539449e-01 3.115128278888835700e-01 -1.044480920813734670e+00 1.000111904112461536e+00 1.388282693312352933e-01 1.408707538513949697e-01 3.237872753954825766e-01 8.255015891278248974e-01 2.268957589738901659e-01 3.934610915018556948e-02 -1.113021394552929477e+00 -1.101267852589865814e+00 -6.374474888221774993e-01 -1.081638506772127695e+00 9.250500837759190187e-01 -5.980278461155007497e-01 -7.891050497680813791e-01 -1.102476271175559352e+00 -6.727646789855928899e-01 -1.799720939603932091e-01 4.348337443312832451e-01 5.686560753936981821e-02 1.060886617221381556e+00 -1.143040569104259163e-01 3.756623712862749431e-01 -1.520891977803001227e+00 -9.348778693119943473e-01 -3.037095291493511207e-01 -1.337085340270898426e+00 5.020644980118561529e-01 -9.847547036606568716e-01 1.177966437334179606e+00 -3.935618787541092511e-01 -1.878391560635963298e-01 6.417474021045478649e-02 3.731097798567501456e-01 -2.011286751821780017e-01 -1.759602471000251800e+00 8.643406766926939877e-01 6.120151626897363251e-01 1.071425055729980091e-01 1.183292735083377512e+00 -1.674986430526608228e-01 5.442953851474635618e-01 5.033078836034335923e-01 5.505107704433270799e-01 -4.242017176598780748e-01 1.937131502534845007e+00 1.716224871759922443e+00 -4.909475612441491776e-01 8.170606567515859009e-02 -9.013064583394003737e-01 2.629102323722845580e-01 9.956428122280942539e-01 -7.242597657977352110e-01 -1.427743987893685507e+00 -1.198701357602658613e+00 2.280774380844961258e-01 -6.409323623350481336e-01 -6.329130909121151449e-02 -9.862752541959317609e-01 -8.441960817588432808e-03 3.646081694408891960e-01 1.382286880244613103e-01 3.151956763615380575e-01 3.184573781015613836e-01 -7.184588423657309875e-01 9.453623146497425189e-01 1.154723662834880316e-01 1.977435604802114388e-01 6.025663577909613489e-01 1.084462606717927713e+00 4.265871873701048700e-01 -2.779198196479493732e-01 -2.190195437426762481e+00 8.071958473269276180e-01 4.329352416000572523e-01 -1.181478050322138040e+00 8.351817933302432828e-02 6.791163327602687261e-01 -3.260164220205812868e-01 2.194354454244247798e-01 -1.061312391940085531e+00 -1.110423551704025485e-01 3.575191232186028523e-01 1.776682824933188520e+00 1.832250025268781002e+00 1.717219374544914634e-01 5.099130481707676577e-01 1.483395520419939162e+00 2.146721678920252341e+00 -4.072627744125015617e-03 -2.047246203607974990e-01 -5.924007292715665063e-01 1.353829908103214297e-01 -4.389742492044769739e-01 1.536619417140635768e+00 3.131403363245092719e-01 2.409978496027327388e+00 -1.480154387506906311e+00 2.345967277991447275e-01 -1.084160244961166919e+00 3.281226699044116346e-01 -1.348103546669050745e+00 6.907829714292976764e-01 7.778734417899022535e-01 1.221785237913456168e+00 -1.047554932007469297e+00 -2.571823282760966542e-02 -2.816571755121287102e-01 2.258169239982368570e-01 -2.937012521564337786e-01 3.042427759890806160e-01 -9.636166343831634729e-01 7.237424597989234876e-01 9.520806077655245003e-01 7.875855276741559885e-02 1.484107716054486326e-01 -2.361621697993265379e+00 -5.427619790953195356e-01 1.626455311683801197e+00 8.276520599896847186e-01 -1.539368955088594726e+00 -1.338516930629439328e+00 -8.872126980854889711e-01 2.509605666438660787e+00 -2.753970530175608444e-01 6.614826773812869654e-01 -3.396962346313082692e-01 1.095364085022908718e+00 -2.086357828130468162e-01 -3.709212566649577325e-01 4.028147655757993717e-02 6.714436460721261435e-01 -2.869387360626222128e-01 -3.588998057303421918e-01 -5.469287092229261349e-01 1.983331144838275328e+00 4.194909420583718407e-01 2.522854047903260732e-01 1.027208248348436825e+00 -7.951887945712055039e-01 9.764263856121911944e-01 -2.084203243503210401e-01 3.683378119949470841e-01 1.590902094230669528e+00 -7.398288251675425586e-01 -8.816863684938081036e-01 1.331333267802996545e+00 1.092970902002560474e-01 -1.760216450485919459e+00 -7.597559047559684364e-01 1.552733036205017125e+00 -1.125608488229784820e-01 -1.038093271591825489e-01 4.439627039703553657e-01 -3.987457373763976798e-01 -6.105671172696028881e-01 -1.643112462001407703e+00 2.319103875721140184e+00 -4.402880830284972014e-01 -5.979897937855683798e-01 2.035367706020943246e-01 -8.821532808664932501e-01 -1.475941891739245726e+00 5.322430809723622813e-01 1.262022491493006493e+00 -6.993190346303677085e-01 1.375739822613527341e+00 -1.605252450601287739e+00 3.962198854219605715e-01 2.143888837222981403e-01 4.513613110388491889e-01 1.387873887875916035e+00 -1.769484763927852367e+00 -1.467142547552696685e+00 1.703828039732729893e+00 1.231548231644511299e-01 1.202109612234989466e+00 -2.013569891617728591e-01 -2.834595189771739188e-01 8.823517700469517555e-01 -1.023785595537212600e+00 1.426448151793281993e-01 1.954460225053692157e-01 1.210779887032172875e+00 -1.129037825909780635e+00 -2.486436939716527017e-01 6.129099066638243193e-02 2.690705960559484078e-01 -1.852305660025897804e+00 3.103707437702343808e-01 1.371557151645003136e+00 1.577959674067552998e+00 -2.489810227342973969e-01 -1.262154646206420594e+00 9.038827039199643920e-01 8.259592455283640833e-01 2.082645154858677253e-02 -8.737647989990801056e-01 -2.296107927145726979e+00 8.269007835838557696e-01 5.043656355314216633e-01 1.049024574695942791e+00 -1.555630669707308011e-01 9.916447464818096691e-01 -6.026928560769531096e-01 6.112386894708436713e-02 8.913490891932844828e-01 1.428401161916032835e+00 -1.565756189014071653e+00 1.108574928378251778e+00 -1.177164767302223636e+00 -1.037347651613418631e-01 6.363979644249857515e-01 -6.751295798688292660e-01 -4.287499995281591203e-01 -6.068930105484193760e-01 1.771056736530603581e+00 -2.779033645863569491e-01 5.853147683733287421e-01 -9.566864823493791414e-01 7.042087590266915553e-01 1.920202329480288794e+00 -1.287537092933409566e+00 -1.251005313536203589e+00 -8.118526297575836548e-01 -9.173177474895037875e-01 9.891554041952808074e-01 -6.502063322044036031e-01 1.012070105904081085e+00 2.796897672104844967e-01 5.613232885715741319e-03 4.816643354026480250e-01 -1.540378884493829592e-01 -3.924763589096840199e-01 -1.289042216848441891e+00 5.808893852463160590e-01 5.375662933975114931e-03 -3.998939921431440836e-02 7.805458466366468895e-02 3.435508328093336838e-02 2.593790789986852863e-01 -1.072147535778022354e+00 -4.269219450293757490e-01 -1.429322645365208588e-01 9.866763463222472108e-01 1.021176439833463734e+00 1.281844155843105959e-01 -4.193757566272248161e-01 2.679979317283922580e-01 -7.656437314820077611e-02 5.898625360209350417e-03 5.086573212829957891e-01 -1.576338336280024566e-01 -5.716796929613060518e-01 -2.105746004451741982e+00 -3.395234564845878156e-01 9.091940892695939969e-01 7.290260772321159599e-02 -5.880627636592636320e-02 -1.224853078459093719e-01 6.676543539197956623e-01 9.077948948135632079e-02 4.554442231964694332e-01 -4.258569940119410341e-02 -1.822197525297834242e-01 -3.925164681223156093e-01 -2.955560461303048947e-01 1.327981577444889760e+00 -8.530905567702232739e-01 4.943229057532951831e-01 2.624962847291001378e-01 -1.637165499897770549e-01 -2.206706034852061460e-01 -8.335949083279238225e-01 -6.515535903722831368e-02 -3.541540631229520564e-01 1.035565876975364175e+00 -3.548060949385519192e-01 3.158723907695265010e-01 8.949578898887730061e-01 1.859514519665403931e-01 6.544332261509576421e-02 3.478060088929996740e-01 -4.684344658823389462e-01 -4.058985469623546116e-01 -1.326836408002191936e+00 2.161284922650222595e-01 -1.270968388571862839e-01 4.011841718161250347e-01 1.805608766329971360e-01 9.186788896156021789e-01 -6.803813156201863332e-01 7.574722507393447657e-01 -1.278039437070532580e+00 5.899052163369404855e-01 6.836003370442044202e-01 1.139811777487420574e+00 -2.194899528159496849e-02 -2.366721224424892245e-01 3.983153346716207521e-03 3.301199030051921168e-01 4.364638238702827633e-01 2.991530197502738631e-01 1.334651019596569288e+00 -8.209162833709610085e-01 4.843773636826990137e-01 4.282110962610072846e-01 -4.546420389438387000e-01 1.062411795742729481e+00 -1.240721414261613198e+00 -6.581901224007778994e-01 -1.185246773647478102e+00 1.255268202929991084e+00 1.386426356676457305e-01 -1.085937391613148728e+00 8.539292506907621982e-01 1.822038116888657633e-01 1.098517286200556997e+00 1.199979195979445246e+00 -6.663852572944799491e-01 1.494489831477956443e-01 -2.136401784198428688e-01 -5.171563605954828668e-01 -1.107066204918496277e+00 -1.759688860073612138e-01 1.083176026589670160e+00 -1.212934985880105510e+00 3.919112303881192028e-01 5.809994284707155066e-01 -7.151832566674889424e-01 1.717343815948207286e+00 -1.236191644337623352e-01 -8.626123810048146323e-01 1.871631615645525493e+00 -4.880571268313049077e-02 1.145199267496915363e+00 -2.865525563358749528e-01 -6.543643205805391716e-01 -8.951522653038336275e-01 -3.815877361215719993e-02 -5.845007570451785650e-01 -1.599730748995680019e+00 1.395552230991481180e+00 3.600156645945785105e-01 1.501545453356383009e+00 -7.946658321449713291e-01 -6.345894503118433561e-02 1.437658162503120847e-02 1.006541205209026568e+00 -5.509925952155801665e-02 -6.233017922801149524e-01 -1.445248059662626872e-01 4.228544594919983468e-01 2.484765722523546091e-02 6.876487964166154709e-01 -7.363388094479242918e-01 -2.268880456637687448e-01 -1.398367589185809834e+00 2.409869481244277800e-01 6.887656837222012607e-01 -2.123060843012370302e+00 2.143332450452887450e+00 -5.210109587735083370e-01 1.387772072182313021e+00 -5.738435335607099397e-01 -3.514549188011197312e-01 1.071692450480856929e+00 -1.429706253988581865e+00 4.325763155690725004e-01 -7.353252804979658330e-02 -3.767113814627920387e-01 -4.095921940691791413e-02 2.922881737421844095e-01 -1.007742938925948240e+00 3.099501112582780382e-01 -4.894239253848257087e-01 -1.751718439614781686e-01 9.101428264145321467e-01 6.829395634771336931e-01 -4.205188691872236428e-01 -3.168699788785672156e-01 -1.587931441392562038e+00 1.005488595487786130e+00 1.375213774863244698e+00 -1.586429917022253555e+00 -1.189418131761157682e-01 -1.869237404183827778e+00 1.852147280058070500e+00 4.846617277158431492e-01 -1.904675436205812478e+00 8.507122861494432753e-01 1.356319250389743436e+00 5.191710771992054108e-01 -8.895025227502096898e-01 -9.021703490730027530e-01 6.231341563401421313e-01 1.603891308475189348e+00 -2.315219966964653153e+00 -1.499742081449988440e+00 1.685055899779822397e+00 5.488359537056229920e-01 5.730644892384435529e-01 -7.065417782280923875e-01 -8.445195265632693404e-01 -2.680683799608348239e-01 -3.229614369918127892e-01 5.814154329965989243e-01 4.415520374470652265e-01 -1.468572595249213464e+00 9.681016671084485825e-01 -4.134519344539521746e-01 1.336341262954515996e-01 -7.158157480974477460e-01 7.914236707905888402e-01 -2.177565149213227524e-01 -6.329619418762175709e-01 5.107615122841271393e-01 -3.295429474081077448e-01 1.657713758061310216e-01 -5.133948363595898234e-01 1.303175572094310120e+00 -1.739809088787264701e-01 -6.844781117360252409e-01 7.686714628150137507e-01 1.513742253541092986e-01 1.420930563953072268e-01 -1.015242847467370479e+00 1.063476232539489308e+00 5.238767105939641233e-01 -1.520917174616064571e+00 -4.614019839342765605e-01 5.430494284525121396e-01 8.264297574457725171e-01 -3.309899643868915442e-01 -1.801330450315941079e+00 1.610054243262227125e+00 -4.460113591386122289e-01 8.024429056300907970e-01 -1.425665507926292319e+00 7.315524434072278037e-01 2.920259211980550870e-03 2.428139741818616248e-01 -6.202046411560159234e-01 9.109496386532357493e-01 -1.483422259895027073e+00 -6.728073593015982956e-01 -4.079050360352808879e-01 9.342510343094581060e-01 3.172566728259892388e-01 1.215428956152707407e+00 -1.234231435125425991e+00 -4.255716015374474415e-01 -1.021362073497053213e+00 1.101657631861336473e+00 -6.099685644041785704e-02 8.803288259124332216e-01 -8.452990851062104349e-01 -9.256023567806148655e-01 1.710709340802411826e-01 -1.085261705646509700e+00 1.161914010530094910e+00 5.072889800674508509e-02 -8.625691864681343801e-02 -6.978823020650790632e-01 -7.164096729767993610e-01 -3.142582520714446437e-01 1.301156741725189470e+00 -1.072720891830383355e-01 5.302026533349016302e-02 -3.895782111867183151e-01 3.297347517197944389e-01 3.215776691560248701e-01 -1.475643643747882872e-01 -4.496175887307269914e-01 -3.107795492066711684e-02 6.070375065580278437e-03 1.469741933063624995e+00 4.185571173130018252e-01 1.003846174652592432e-01 -7.081096370654456074e-01 9.891960276285870490e-01 -3.152671530353301499e-01 -2.941753636185655274e-02 7.386692575459514742e-01 4.425388269219359683e-01 1.540332604633100899e-01 1.019807584397243838e+00 -8.468715719296363575e-01 2.106073048800891634e-01 5.885975531610174727e-01 -8.749310514894432789e-01 7.089061648906538338e-01 -1.824830335152622107e-01 3.115477948947674713e-01 -2.418487819753309953e-01 -5.553171910903392794e-01 3.251859556308386301e-01 -8.937196465039431992e-01 1.339837963542906296e+00 -4.388570068906309518e-01 -3.957791983036884620e-01 -1.260228889779432038e+00 3.824829943163348678e-01 -6.705087928854065460e-01 -6.151750487361564712e-01 1.491449758848756080e+00 4.162302687596979855e-01 2.235594952360261678e-01 -1.518502908548051034e+00 8.592781741496496872e-02 2.028358878223920081e-01 7.652529237691875486e-02 -8.171568160177666851e-01 5.351304300611580134e-01 -5.683521709749130846e-01 6.268031208545780109e-01 5.337487191080690918e-01 -1.076597601497423673e+00 -1.569722373078520361e+00 1.508260146927441925e+00 1.365618417072162138e+00 1.183825981923107173e+00 -8.494457606275013228e-01 -8.597322310054654748e-01 -4.040792342150422156e-01 -1.104486359793208861e+00 3.334494818742842481e-01 3.350924169301528477e-01 1.114412875698838956e+00 -7.414295941280806268e-01 5.570403445714710022e-01 9.642686661987635022e-01 -1.479043670849417680e+00 -9.109727785836001512e-01 -3.372012359173569562e-01 3.789857795072699154e-01 8.304293658540812251e-01 -2.472938647003991228e-02 1.988367936347581466e-01 9.191113492030782428e-01 -4.467600644410675559e-02 -1.865489763906152954e-01 -2.101311365352583616e-01 3.616236326445632088e-01 -2.381150256558750011e-01 9.695893075205388456e-01 -6.824705942217493826e-01 1.011711179873096222e+00 1.016380303599946799e+00 -1.238037182339349007e+00 -1.072140336688575557e+00 -4.609623252573539776e-01 -5.573020828949253741e-02 1.454474207009229136e+00 -4.129814225365437963e-01 1.317045646354699340e+00 -6.059062210735486828e-03 -5.285103530942556471e-01 -4.493872178684330532e-01 -5.613798528457981246e-02 -7.396478194900258929e-01 1.485783047012864788e+00 -1.688885815365459120e+00 -4.714128320305677189e-01 -1.516606462699524316e-01 9.058609108557785783e-01 1.303468163658250356e+00 1.044022235971845819e-01 2.991447922194776510e-01 1.283896410556085943e+00 1.598276018706774826e+00 5.731915017451101324e-01 -1.500443992671040006e+00 -1.240900363056430811e+00 -7.081991114628543027e-01 -5.402813785602615659e-02 1.259223588360269992e-02 -1.333790728407690251e-01 -9.308258103948600093e-01 -7.231850445874800082e-01 3.079513354954732662e-02 -4.049276983284016418e-01 -6.458159160832748213e-01 -4.180891764989672632e-01 1.167816235435027661e+00 1.032419360666487540e+00 -5.120604337085791213e-01 -1.779916758756774575e+00 9.833544807632764451e-02 -1.861771948427614620e-01 1.250683411393801903e+00 -1.578953662631870314e+00 3.519660541518344621e-01 -2.957334522630982176e-01 -9.648769892570081552e-01 2.082799421061106576e-02 9.693856761333327077e-0