-2.861411294222552826e+01 -5.702056074442591438e+00 4.714303652691238078e+00 -5.702056074442591438e+00 -2.706943324703129150e+01 1.539135064809959275e+01 4.714303652691238078e+00 1.539135064809959275e+01 -9.805144970225239121e+00
5.451209346071684791e+01 1.185658808998820213e+01 -1.206509525602253063e+01 1.185658808998820213e+01 2.098493047682574542e+01 -2.221146487208775167e+00 -1.206509525602253063e+01 -2.221146487208775167e+00 6.107745609731242098e+01
7.077570916384956945e+01 -1.038155001287620216e+01 -8.818572357147687057e+00 -1.038155001287620216e+01 6.319395067175135239e+01 -2.262087380234830647e+01 -8.818572357147687057e+00 -2.262087380234830647e+01 7.041098565782940000e+01
1.857771231256803901e+01 -1.054534155706592990e+01 2.194325452445734737e+00 -1.054534155706592990e+01 3.131602490349987278e+01 -8.170618075490191146e+00 2.194325452445734737e+00 -8.170618075490191146e+00 7.029732913104018621e+01
-9.356950932978932656e+00 6.866773302884539021e-01 -3.748337477035244447e+00 6.866773302884539021e-01 -3.204693890454478122e+01 -2.582490064014523676e-02 -3.748337477035244447e+00 -2.582490064014523676e-02 -1.137495663449501393e+01
3.735858501332379689e+01 -6.276098800363119623e-02 -3.265984929914667934e+00 -6.276098800363119623e-02 3.889158515849177888e+01 3.828483454609089787e+00 -3.265984929914667934e+00 3.828483454609089787e+00 5.974003600491194277e+01
-1.960319292925098367e+01 1.128914417854581131e+01 1.037406265621387469e+01 1.128914417854581131e+01 -5.551702258734467321e+00 -1.573729493847924843e+01 1.037406265621387469e+01 -1.573729493847924843e+01 4.560695251814775197e+00
1.647619459497595074e+01 -2.790327783703098419e+01 -1.310138854078528148e+01 -2.790327783703098419e+01 4.600828475531329786e+01 -2.221118313041309023e+01 -1.310138854078528148e+01 -2.221118313041309023e+01 4.928735451233641385e+01
2.285371859072933987e+01 -3.546276238590932994e+00 2.604127993806483410e+00 -3.546276238590932994e+00 5.086647985421366513e+01 1.125779430688641725e+01 2.604127993806483410e+00 1.125779430688641725e+01 6.262007945093899508e+01
7.203752420134864565e+01 -4.138584214543176820e+00 -1.301638203421166828e+01 -4.138584214543176820e+00 3.825176276818767462e+01 -6.446833530605915463e-01 -1.301638203421166828e+01 -6.446833530605915463e-01 5.838857551469411789e+01
-3.188831037293378401e+01 8.975557625403821405e+00 2.251205049261145730e-01 8.975557625403821405e+00 -2.301788926819130054e+00 -5.080766250076589330e+00 2.251205049261145730e-01 -5.080766250076589330e+00 -1.590838659721440299e-02
6.207765623141960454e+00 -6.347507680374035566e+00 5.749003044586766809e-01 -6.347507680374035566e+00 2.686825648960227397e+01 1.695325191510034202e+01 5.749003044586766809e-01 1.695325191510034202e+01 4.238905951189166643e+01
4.578532671569303147e+01 -3.241488926846648244e+00 1.023374927135886736e+00 -3.241488926846648244e+00 4.130821487473755127e+01 3.063716711565672934e+00 1.023374927135886736e+00 3.063716711565672934e+00 8.058584133432312058e+01
-1.824438038743622670e+01 6.107634023556542502e+00 -9.817226125933675718e+00 6.107634023556542502e+00 -2.678010313018606681e+01 3.379655733579349342e+00 -9.817226125933675718e+00 3.379655733579349342e+00 8.296057432757645955e+00
2.897318207084601482e+01 -7.563758513908319436e+00 -1.741019634445671471e+01 -7.563758513908319436e+00 2.963859036047162121e+01 -4.733290134981610109e+00 -1.741019634445671471e+01 -4.733290134981610109e+00 6.160723030705106851e+01
-4.203571905091035177e+01 -2.336248648481942070e+01 1.775367210781274707e+01 -2.336248648481942070e+01 -2.672251816097002930e+01 5.681915800930672056e+00 1.775367210781274707e+01 5.681915800930672056e+00 5.565374393864178870e+00
4.439940026689762220e+01 -1.654409118125401079e+01 -1.191566244930921670e+00 -1.654409118125401079e+01 1.979610608876797784e+01 1.408556408721211106e+01 -1.191566244930921670e+00 1.408556408721211106e+01 6.667147020221158016e+01
3.948119342357536254e+01 -8.403508564098114419e+00 -1.429545398599738881e+01 -8.403508564098114419e+00 2.017717920358541406e+01 8.951038735411472880e-01 -1.429545398599738881e+01 8.951038735411472880e-01 5.666457155673192858e+01
-4.293885017900085188e+01 -5.320040170142157798e+00 -3.542224546996739942e+00 -5.320040170142157798e+00 -2.567288825112139605e+01 9.512620578025016371e+00 -3.542224546996739942e+00 9.512620578025016371e+00 -3.130776761280401743e+01
-2.765960918696853099e+01 -7.746636753991179347e+00 3.144241868480932567e+01 -7.746636753991179347e+00 -1.193508572105676535e+01 8.699606718803591654e-02 3.144241868480932567e+01 8.699606718803591654e-02 -1.847320793896397362e+01
2.058697896224728652e+01 1.048261128680750165e+00 -1.129316208309675140e+01 1.048261128680750165e+00 1.834900523820633822e+01 -3.131113925969935874e+00 -1.129316208309675140e+01 -3.131113925969935874e+00 4.915489236996743472e+01
2.523124486936075073e+01 -2.220702533959001634e+00 1.394425905481490346e+01 -2.220702533959001634e+00 2.853592547364095466e+01 2.759992752326202226e+00 1.394425905481490346e+01 2.759992752326202226e+00 4.603251921916318423e+01
3.175289142976698287e+01 4.333233127925257833e+00 1.020068834181226336e+01 4.333233127925257833e+00 3.288782367556738251e+01 -8.111087891917591719e+00 1.020068834181226336e+01 -8.111087891917591719e+00 5.960980317211203783e+01
6.306880785142011447e+00 1.435902226952418204e+00 -8.468598713618044727e+00 1.435902226952418204e+00 1.036502715499748106e+01 6.083161661283247312e+00 -8.468598713618044727e+00 6.083161661283247312e+00 4.140491447320820129e+01
2.896936277344904909e+01 1.347263920355216982e+01 -1.486884669249542767e+01 1.347263920355216982e+01 7.019127851088437176e+00 2.350591118412218350e+00 -1.486884669249542767e+01 2.350591118412218350e+00 4.664852603684100529e+01
-1.080359022198837238e+01 1.310722739844936369e+00 5.013604451199453749e+00 1.310722739844936369e+00 -2.887251210345174357e+01 1.153187020943010133e+01 5.013604451199453749e+00 1.153187020943010133e+01 1.237266280183290768e+00
3.623420908644738603e+01 8.951965528254003601e+00 7.096354991468043494e+00 8.951965528254003601e+00 1.207466878237067753e+01 1.997783206625611285e+01 7.096354991468043494e+00 1.997783206625611285e+01 5.561369318060658173e+01
4.487463078038118169e+01 1.085981522509587016e+01 -7.850004287083254262e+00 1.085981522509587016e+01 3.462822835966420598e+01 -2.374455613212954219e+01 -7.850004287083254262e+00 -2.374455613212954219e+01 5.756118866196290185e+01
3.354374658259061448e+01 -2.039303788140572848e+01 -1.377319394016368648e+01 -2.039303788140572848e+01 2.724517931231922319e+01 -9.019844676705076836e+00 -1.377319394016368648e+01 -9.019844676705076836e+00 6.143160661356021990e+01
-2.436811747898238423e+01 -6.194605428810447734e+00 3.126600301001997373e+00 -6.194605428810447734e+00 2.475452977735812798e-01 8.942976523679782019e+00 3.126600301001997373e+00 8.942976523679782019e+00 1.253538507377163214e+01
1.819243573185737972e+01 2.204845932635287387e+00 -8.607440025156670060e+00 2.204845932635287387e+00 6.059221348880358704e+01 -1.336600211248221548e+01 -8.607440025156670060e+00 -1.336600211248221548e+01 7.800930247324551203e+01
2.414397371404262671e+01 8.699083192868585002e+00 -7.700743296608216326e+00 8.699083192868585002e+00 1.981982053777705133e+01 -9.623829060184544204e+00 -7.700743296608216326e+00 -9.623829060184544204e+00 5.163367141950465111e+01
5.767789014116962321e+00 -1.095245885248377071e+01 -1.673720577328223547e+00 -1.095245885248377071e+01 2.377147554888300718e+01 6.734840071145999474e+00 -1.673720577328223547e+00 6.734840071145999474e+00 4.058244520451172122e+01
1.128418035199952243e+02 -3.819948813405856569e+00 -4.272445900633806026e+00 -3.819948813405856569e+00 9.687964336661461573e+01 3.176264934730135714e+00 -4.272445900633806026e+00 3.176264934730135714e+00 8.313422414219149914e+01
4.231737434755777372e+01 6.542757557765265908e+00 1.499308344622333422e+01 6.542757557765265908e+00 3.272439300510126969e+01 1.670373695998273433e+01 1.499308344622333422e+01 1.670373695998273433e+01 6.546196983886915177e+01
-9.739611368710521688e+00 -4.602249277223933177e+00 3.978057393014264420e+00 -4.602249277223933177e+00 -2.273857418761075522e+01 -8.010404517401898516e+00 3.978057393014264420e+00 -8.010404517401898516e+00 -1.481849386863001161e+00
2.781432057286034265e+01 -2.508531929955889694e+01 -2.150396730442978299e+00 -2.508531929955889694e+01 3.028627338149810910e+01 -1.285989313885262497e+01 -2.150396730442978299e+00 -1.285989313885262497e+01 3.993043665044132950e+01
2.014793882948950099e+01 5.354069640332559388e+00 2.691288763459070754e+00 5.354069640332559388e+00 2.543446595450250669e+01 -2.656395562060274607e+00 2.691288763459070754e+00 -2.656395562060274607e+00 6.913796577431327250e+01
-3.705002101533074921e+01 -1.330226795156889885e+01 -1.341450583302803956e+01 -1.330226795156889885e+01 -2.221746180489297373e+01 -6.715520545713179246e+00 -1.341450583302803956e+01 -6.715520545713179246e+00 -9.419908447519773631e+00
4.332369858986430700e+01 1.556515661559889185e+00 -5.386388728371855450e+00 1.556515661559889185e+00 1.530092781147760483e+01 -4.975100390029790098e+00 -5.386388728371855450e+00 -4.975100390029790098e+00 6.852687763167566004e+01
9.614725727580546888e+00 -2.335555016015171503e+01 -6.793076828026186620e-01 -2.335555016015171503e+01 5.168121914988935117e+01 2.432820113162557363e-01 -6.793076828026186620e-01 2.432820113162557363e-01 5.446231510618334681e+01
-9.745938838907550306e+00 -8.227539929622237125e+00 -3.854806770086607326e+00 -8.227539929622237125e+00 4.655151141323262132e-01 -7.722703369073931512e+00 -3.854806770086607326e+00 -7.722703369073931512e+00 1.166433797873615497e+01
5.153882292491898909e+01 -1.923415245503610294e+01 2.086800640637712867e+00 -1.923415245503610294e+01 3.401701239624675566e+01 7.661370865332551183e+00 2.086800640637712867e+00 7.661370865332551183e+00 5.725116350078879179e+01
-5.400878109924773440e+01 2.981951402451761268e+00 2.024847448863765109e+01 2.981951402451761268e+00 -1.259290057941829133e+00 -7.354732749769599565e+00 2.024847448863765109e+01 -7.354732749769599565e+00 -4.144077959464391725e+00
-4.478206847505048671e+01 -1.288542923366763304e+01 -1.094986434623134741e+01 -1.288542923366763304e+01 -3.476617234257814459e+01 1.028837556100314465e+01 -1.094986434623134741e+01 1.028837556100314465e+01 -1.019329219756019711e+01
2.460312315634784142e+01 -1.598726121609020367e+01 -2.975712004667760535e+00 -1.598726121609020367e+01 3.314174842696749579e+01 6.672509503625279059e+00 -2.975712004667760535e+00 6.672509503625279059e+00 4.819279543862645454e+01
2.812542209604811561e+01 -3.562703331318266553e+00 -1.103286184075535026e+01 -3.562703331318266553e+00 3.274846385049122688e+01 -7.025604598056616190e-01 -1.103286184075535026e+01 -7.025604598056616190e-01 4.168758852575847840e+01
5.237627557967971370e+01 6.145289668211422196e+00 4.755233401622247946e+00 6.145289668211422196e+00 1.842971389097399637e+01 7.787764823898262634e+00 4.755233401622247946e+00 7.787764823898262634e+00 7.172849595256703026e+01
3.035492748435648735e+01 -7.234687903062241965e+00 1.525735708500187915e+00 -7.234687903062241965e+00 1.356779924975417373e+01 1.088744198892419313e+01 1.525735708500187915e+00 1.088744198892419313e+01 5.125298296244707075e+01
5.249193169930105540e+01 8.187806831717745482e+00 1.112421294996633669e+00 8.187806831717745482e+00 3.850094438660032381e+01 -1.110621928820839521e+01 1.112421294996633669e+00 -1.110621928820839521e+01 5.804383512554553448e+01
-2.012254367868358074e+01 -1.475873612583059291e+01 -1.163203888102695949e+01 -1.475873612583059291e+01 2.008459731390669489e+01 -8.167078106433324436e+00 -1.163203888102695949e+01 -8.167078106433324436e+00 6.996109951190140563e+00
2.794573132533136928e+01 -2.254947717721628386e+00 -7.225018290107364294e+00 -2.254947717721628386e+00 3.504877709587091061e+01 -3.214754490430658529e-01 -7.225018290107364294e+00 -3.214754490430658529e-01 4.050273918141912333e+01
-6.834617588752507800e+00 -1.208472197562593742e+01 -1.365165419644234390e+01 -1.208472197562593742e+01 -1.457939615690829704e+01 1.354312891640146965e+01 -1.365165419644234390e+01 1.354312891640146965e+01 9.344106767880496989e+00
2.781534606247398145e+01 -2.775578374730687248e-01 -1.627278923157691537e+01 -2.775578374730687248e-01 4.821010440280055320e+01 -2.422153238755458560e+01 -1.627278923157691537e+01 -2.422153238755458560e+01 6.235323829360471137e+01
-2.873249374749337903e+01 3.938094002001217286e-01 -9.417501123421335052e+00 3.938094002001217286e-01 -3.358174642434136103e+00 7.226894934238473067e-02 -9.417501123421335052e+00 7.226894934238473067e-02 1.354029035586882479e+01
-2.698188672082251660e+00 -4.911588174159786213e+00 -5.849772374004691855e+00 -4.911588174159786213e+00 2.111583304062432731e+01 -1.047356044511250950e+01 -5.849772374004691855e+00 -1.047356044511250950e+01 4.487322472760409653e+01
-1.064919458625984916e+01 -8.650397291422937229e+00 5.810367878346160531e+00 -8.650397291422937229e+00 -8.073227313490678014e+00 1.043971848629340649e+01 5.810367878346160531e+00 1.043971848629340649e+01 -2.916006855169369416e+01
4.192230758599951912e+01 1.264932798651399892e+01 8.535366326728297537e+00 1.264932798651399892e+01 3.374437086322627266e+01 6.457267642348575087e+00 8.535366326728297537e+00 6.457267642348575087e+00 7.246253875951049395e+01
1.249200388338990031e+01 -1.161079666446966030e+01 -1.208572925125783293e+01 -1.161079666446966030e+01 1.476099934339648811e+01 3.479480078445335245e+00 -1.208572925125783293e+01 3.479480078445335245e+00 5.347251985899062277e+01
-2.071097593651625246e+01 -5.036767424911620772e+00 -3.468521335142726425e+00 -5.036767424911620772e+00 1.752233397319019303e+01 -1.115216028166379658e+01 -3.468521335142726425e+00 -1.115216028166379658e+01 3.922906866271212323e+00
-2.357039640712172357e+01 -2.017249333892990393e+01 -6.385463578760647962e+00 -2.017249333892990393e+01 -3.499906294458366318e+00 9.342309215742844453e-01 -6.385463578760647962e+00 9.342309215742844453e-01 1.665809866710517229e+00
-1.728147549753983370e+01 -4.325962517478292746e+00 3.074252152142271655e+00 -4.325962517478292746e+00 -3.337172732396864916e+01 5.310271147362424671e+00 3.074252152142271655e+00 5.310271147362424671e+00 5.066394060311135705e-01
2.466959050503906425e+01 -1.004019929860970528e+01 -2.137452412268026336e+01 -1.004019929860970528e+01 2.279255220348266064e+01 9.806932839800539981e+00 -2.137452412268026336e+01 9.806932839800539981e+00 6.649436218854012282e+01
4.258661926001977349e+01 -1.934240310157535614e+00 7.817850349196954207e-01 -1.934240310157535614e+00 3.640901367500330821e+01 3.539174116130152647e+00 7.817850349196954207e-01 3.539174116130152647e+00 7.747366323880967798e+01
1.970615684659163236e+01 -2.943149348032609858e+00 9.319044257964095301e-01 -2.943149348032609858e+00 5.265053208038587940e+01 -1.651308268181872485e-01 9.319044257964095301e-01 -1.651308268181872485e-01 6.186078472392803462e+01
-8.766160105762244470e+00 -4.269928565335813220e-01 -3.707609214986001156e+00 -4.269928565335813220e-01 1.653413621078504425e+00 -1.453695690216267655e+00 -3.707609214986001156e+00 -1.453695690216267655e+00 4.491064658073544713e-01
-1.449990756053955998e+01 6.435814197675316706e+00 8.696433058120565107e+00 6.435814197675316706e+00 -1.745139574530156423e+01 -8.203110376507261492e+00 8.696433058120565107e+00 -8.203110376507261492e+00 -8.436017194000580588e+00
2.576704553623869032e+01 8.540893027827560768e-01 -1.319680028133409522e+01 8.540893027827560768e-01 6.016979919081285999e+01 -4.291195907310910052e+00 -1.319680028133409522e+01 -4.291195907310910052e+00 7.590294160918166710e+01
-3.110485154850217526e+01 4.877188263549440350e+00 -1.264327187460460467e+00 4.877188263549440350e+00 -7.379745660035580634e+00 -1.314213582732261365e+01 -1.264327187460460467e+00 -1.314213582732261365e+01 -1.069979241074027421e+01
-8.710583046004849450e+00 1.947465664608035851e+01 1.434761527966855965e+00 1.947465664608035851e+01 -7.538961275667418249e+00 -8.590620015380565633e+00 1.434761527966855965e+00 -8.590620015380565633e+00 3.773503326986120676e+00
5.012528179337738976e+01 -8.700596315458803076e+00 4.676167126002332530e+00 -8.700596315458803076e+00 7.309583932952320140e+01 1.340585706288771739e+01 4.676167126002332530e+00 1.340585706288771739e+01 6.254956621706927677e+01
2.488455920920624465e+01 1.815115460597953367e+00 -5.249344831216804508e+00 1.815115460597953367e+00 -8.497596296478478806e+00 -1.725251126242221389e+01 -5.249344831216804508e+00 -1.725251126242221389e+01 3.061923162018205957e+01
