5.386769999999999614e-01 1.585709999999999953e+00 4.496610000000000440e+00 5.764580000000000259e-01 1.672129999999999894e+00 8.693690000000000140e+00 5.364139999999999464e-01 1.694520000000000026e+00 3.432999999999999940e-01 5.881290000000000129e-01 9.464880000000000848e+00 4.457970000000000432e+00 5.905679999999999819e-01 6.171450000000000102e+00 4.370110000000000383e+00 5.831560000000000077e-01 9.411670000000000869e+00 8.631669999999999732e+00 5.992650000000000476e-01 6.275649999999999729e+00 8.567479999999999762e+00 6.702209999999999557e-01 9.423069999999999169e+00 3.221999999999999864e-01 6.379749999999999588e-01 6.259030000000000094e+00 2.721999999999999975e-01 5.852509999999999657e-01 1.394759999999999955e+01 4.482249999999999623e+00 6.127240000000000464e-01 1.400409999999999933e+01 8.663940000000000197e+00 6.249350000000000183e-01 1.400650000000000084e+01 3.602000000000000202e-01 3.032160000000000188e+00 2.528529999999999944e+00 1.814640000000000031e+00 3.852289999999999992e+00 1.255500000000000060e+00 3.948890000000000011e+00 2.876650000000000151e+00 2.320749999999999869e+00 4.489889999999999937e+00 2.993310000000000137e+00 2.629939999999999944e+00 5.926910000000000345e+00 1.499829999999999997e+00 2.592579999999999885e+00 3.884739999999999860e+00 3.993269999999999875e+00 1.621609999999999996e+00 2.462559999999999860e+00 5.179090000000000416e+00 1.577280000000000015e+00 4.514960000000000306e+00 3.847820000000000018e+00 1.212239999999999984e+00 7.972209999999999575e+00 2.890120000000000022e+00 2.267959999999999976e+00 8.628740000000000521e+00 3.030289999999999928e+00 2.618170000000000108e+00 1.009750000000000014e+01 1.548999999999999932e+00 2.592449999999999921e+00 8.019660000000000011e+00 4.021270000000000344e+00 1.629440000000000000e+00 6.568550000000000111e+00 5.256639999999999979e+00 1.580359999999999987e+00 8.602289999999999992e+00 3.836430000000000007e+00 1.284030000000000005e+00 1.212270000000000003e+01 2.873880000000000212e+00 2.209779999999999855e+00 3.553000000000000047e-01 1.497700000000000031e+00 2.668909999999999894e+00 1.216019999999999968e+01 3.966460000000000097e+00 1.547569999999999890e+00 1.066859999999999964e+01 5.131190000000000140e+00 1.670909999999999895e+00 4.089999999999999747e-01 3.159159999999999968e+00 5.087609999999999744e+00 1.716129999999999933e+00 3.024709999999999788e+00 1.050960000000000072e+01 1.858470000000000066e+00 3.900269999999999904e+00 9.069630000000000081e+00 3.813410000000000188e+00 3.396310000000000162e+00 7.808069999999999844e+00 4.114449999999999719e+00 2.943940000000000001e+00 1.012979999999999947e+01 4.440610000000000390e+00 3.848889999999999922e+00 6.539460000000000051e+00 3.813600000000000101e+00 2.931950000000000056e+00 5.481099999999999639e+00 4.380819999999999936e+00 3.064210000000000100e+00 5.209889999999999688e+00 5.908809999999999896e+00 2.993440000000000101e+00 1.041489999999999938e+01 5.888790000000000191e+00 1.536370000000000013e+00 1.042329999999999934e+01 3.862560000000000215e+00 1.611690000000000067e+00 5.135080000000000311e+00 3.761179999999999968e+00 4.038730000000000153e+00 6.194810000000000372e+00 2.343170000000000197e+00 4.101910000000000167e+00 9.508250000000000313e+00 2.417460000000000164e+00 5.274029999999999774e+00 9.381510000000000460e+00 4.510909999999999975e+00 5.208829999999999849e+00 6.210729999999999862e+00 4.401989999999999625e+00 3.785740000000000105e+00 9.121150000000000091e+00 7.992849999999999788e+00 3.418909999999999894e+00 7.815339999999999954e+00 8.243339999999999890e+00 2.888970000000000038e+00 1.009689999999999976e+01 8.604649999999999466e+00 3.911669999999999980e+00 6.532840000000000202e+00 7.949069999999999858e+00 2.890820000000000167e+00 5.494089999999999918e+00 8.510609999999999786e+00 3.057440000000000158e+00 5.154499999999999638e+00 9.998760000000000758e+00 3.090250000000000163e+00 1.046119999999999983e+01 1.007300000000000040e+01 1.560189999999999966e+00 1.037909999999999933e+01 8.036839999999999762e+00 1.539970000000000061e+00 5.193260000000000431e+00 7.922369999999999912e+00 4.028030000000000221e+00 6.224739999999999718e+00 6.490709999999999980e+00 4.084240000000000315e+00 9.541359999999999175e+00 6.600069999999999659e+00 5.218329999999999913e+00 9.424289999999999168e+00 8.625209999999999155e+00 5.263670000000000293e+00 6.192199999999999704e+00 8.511979999999999436e+00 3.911280000000000090e+00 9.054119999999999280e+00 1.209849999999999959e+01 3.366359999999999797e+00 7.834950000000000081e+00 1.236780000000000079e+01 2.968659999999999854e+00 1.017290000000000028e+01 2.937000000000000166e-01 3.845660000000000078e+00 6.537799999999999834e+00 1.208980000000000032e+01 2.967490000000000183e+00 5.480500000000000149e+00 2.159000000000000086e-01 1.629799999999999915e+00 1.039160000000000039e+01 1.206020000000000003e+01 1.590200000000000058e+00 5.181289999999999729e+00 1.207670000000000066e+01 4.065730000000000288e+00 6.185509999999999842e+00 1.059869999999999912e+01 4.006269999999999776e+00 9.408250000000000668e+00 1.066769999999999996e+01 5.270900000000000141e+00 9.387890000000000512e+00 3.618000000000000105e-01 5.288929999999999687e+00 6.237210000000000143e+00 2.933000000000000052e-01 3.068869999999999987e+00 1.302519999999999989e+01 1.825250000000000039e+00 3.422839999999999883e+00 3.049999999999999933e-02 4.246400000000000396e+00 3.890390000000000015e+00 1.432690000000000019e+01 3.870709999999999873e+00 2.937930000000000152e+00 1.330809999999999960e+01 4.426899999999999835e+00 3.023280000000000189e+00 1.299559999999999960e+01 5.884590000000000209e+00 1.558240000000000069e+00 1.301009999999999955e+01 3.850130000000000052e+00 4.020039999999999836e+00 1.406869999999999976e+01 2.424020000000000064e+00 5.216280000000000250e+00 1.399230000000000018e+01 4.490490000000000315e+00 3.436059999999999892e+00 1.553790000000000049e+01 8.267609999999999459e+00 3.864869999999999806e+00 1.429829999999999934e+01 7.916599999999999859e+00 2.959890000000000132e+00 1.320149999999999935e+01 8.590659999999999741e+00 2.995709999999999873e+00 1.297129999999999939e+01 9.995419999999999305e+00 1.486680000000000001e+00 1.297630000000000017e+01 8.038959999999999440e+00 3.994380000000000042e+00 1.402309999999999945e+01 6.491259999999999586e+00 5.174529999999999852e+00 1.397729999999999961e+01 8.575129999999999697e+00 3.446060000000000123e+00 1.558709999999999951e+01 3.139999999999999736e-02 3.878039999999999932e+00 1.428529999999999944e+01 1.208130000000000059e+01 2.870080000000000187e+00 1.332160000000000011e+01 3.472999999999999976e-01 1.515879999999999894e+00 1.296020000000000039e+01 1.209529999999999994e+01 3.983950000000000102e+00 1.397189999999999976e+01 1.057929999999999993e+01 5.213180000000000369e+00 1.397959999999999958e+01 3.679000000000000048e-01 7.570529999999999760e+00 2.595800000000000107e+00 1.776510000000000034e+00 8.491089999999999804e+00 1.292980000000000018e+00 3.869079999999999853e+00 7.503779999999999895e+00 2.294439999999999813e+00 4.513029999999999653e+00 7.688419999999999810e+00 2.542060000000000208e+00 5.943310000000000315e+00 6.119559999999999889e+00 2.621900000000000119e+00 3.859440000000000204e+00 8.620449999999999946e+00 1.573299999999999921e+00 2.368980000000000086e+00 9.832309999999999661e+00 1.622800000000000020e+00 4.558849999999999625e+00 8.418839999999999435e+00 1.289670000000000094e+00 8.088820000000000121e+00 7.515349999999999753e+00 2.303380000000000205e+00 8.628019999999999357e+00 7.543009999999999771e+00 2.586079999999999934e+00 1.009399999999999942e+01 6.135229999999999961e+00 2.607590000000000074e+00 7.990820000000000256e+00 8.662739999999999441e+00 1.608360000000000012e+00 6.617169999999999774e+00 9.785019999999999385e+00 1.647329999999999961e+00 8.699669999999999348e+00 8.387629999999999697e+00 1.261470000000000091e+00 1.210139999999999993e+01 7.392369999999999663e+00 2.248330000000000162e+00 3.658000000000000140e-01 6.054879999999999818e+00 2.674739999999999895e+00 1.210500000000000043e+01 8.571519999999999584e+00 1.592400000000000038e+00 1.068159999999999954e+01 9.759009999999999962e+00 1.721440000000000081e+00 3.981000000000000094e-01 7.711560000000000414e+00 5.072379999999999889e+00 1.731780000000000097e+00 7.777890000000000192e+00 1.045190000000000019e+01 1.745949999999999891e+00 8.507970000000000255e+00 9.096999999999999531e+00 3.821039999999999992e+00 8.021160000000000068e+00 7.794279999999999653e+00 4.200230000000000352e+00 7.606239999999999668e+00 1.003049999999999997e+01 4.482219999999999871e+00 8.493800000000000239e+00 6.580969999999999764e+00 3.852770000000000028e+00 7.530669999999999753e+00 5.551440000000000374e+00 4.378040000000000376e+00 7.700179999999999580e+00 5.134509999999999685e+00 5.868909999999999627e+00 7.786640000000000228e+00 1.043870000000000076e+01 5.957209999999999894e+00 6.292779999999999596e+00 1.040150000000000041e+01 3.887890000000000068e+00 6.179990000000000094e+00 5.163949999999999818e+00 3.789429999999999854e+00 8.595100000000000406e+00 6.169730000000000381e+00 2.332139999999999880e+00 8.657510000000000261e+00 9.322190000000000865e+00 2.356310000000000127e+00 9.912039999999999296e+00 9.319129999999999470e+00 4.470209999999999795e+00 9.795730000000000715e+00 6.262220000000000120e+00 4.413490000000000357e+00 8.537140000000000839e+00 9.067379999999999995e+00 7.966999999999999638e+00 8.190200000000000813e+00 7.751240000000000130e+00 8.266059999999999519e+00 7.586299999999999599e+00 1.001040000000000063e+01 8.628180000000000405e+00 8.532299999999999329e+00 6.434389999999999610e+00 7.945500000000000007e+00 7.565039999999999765e+00 5.509940000000000282e+00 8.557100000000000151e+00 7.677050000000000374e+00 5.229049999999999976e+00 9.988340000000000884e+00 7.779670000000000307e+00 1.041499999999999915e+01 1.002239999999999931e+01 6.184120000000000061e+00 1.034869999999999912e+01 8.036279999999999646e+00 6.197849999999999859e+00 5.135040000000000049e+00 7.909320000000000128e+00 8.687409999999999854e+00 6.120029999999999859e+00 6.495370000000000310e+00 8.662119999999999820e+00 9.464240000000000208e+00 6.588540000000000063e+00 9.938399999999999679e+00 9.374980000000000757e+00 8.565440000000000609e+00 9.879030000000000200e+00 6.201430000000000220e+00 8.585100000000000620e+00 8.400769999999999627e+00 9.079370000000000829e+00 1.204219999999999935e+01 7.996950000000000003e+00 7.750829999999999664e+00 1.228940000000000055e+01 7.605310000000000237e+00 1.007549999999999990e+01 2.750000000000000222e-01 8.469459999999999766e+00 6.481469999999999843e+00 1.205070000000000086e+01 7.607850000000000001e+00 5.472599999999999909e+00 2.179000000000000103e-01 6.209120000000000417e+00 1.041970000000000063e+01 1.212889999999999979e+01 6.165600000000000414e+00 5.241480000000000139e+00 1.205640000000000001e+01 8.680730000000000501e+00 6.208700000000000330e+00 1.052890000000000015e+01 8.703229999999999578e+00 9.404299999999999216e+00 1.069110000000000049e+01 9.887570000000000192e+00 9.277850000000000819e+00 3.160999999999999921e-01 9.859609999999999985e+00 6.269079999999999764e+00 3.045999999999999819e-01 7.678829999999999600e+00 1.297359999999999935e+01 1.746699999999999919e+00 8.055960000000000676e+00 2.239999999999999977e-02 4.225439999999999863e+00 8.504450000000000287e+00 1.435570000000000057e+01 3.812889999999999890e+00 7.548639999999999795e+00 1.343169999999999931e+01 4.432430000000000092e+00 7.702779999999999738e+00 1.295100000000000051e+01 5.861769999999999925e+00 6.229940000000000033e+00 1.297010000000000041e+01 3.761439999999999895e+00 8.615619999999999834e+00 1.399540000000000006e+01 2.387599999999999945e+00 9.843790000000000262e+00 1.403229999999999933e+01 4.497969999999999580e+00 8.012679999999999580e+00 1.560449999999999982e+01 8.310430000000000206e+00 8.479609999999999204e+00 1.437829999999999941e+01 7.890810000000000102e+00 7.515299999999999869e+00 1.337620000000000076e+01 8.550390000000000157e+00 7.636650000000000382e+00 1.297509999999999941e+01 1.001229999999999976e+01 6.181259999999999977e+00 1.299830000000000041e+01 8.003790000000000404e+00 8.653320000000000789e+00 1.399419999999999931e+01 6.495540000000000092e+00 9.767490000000000450e+00 1.396039999999999992e+01 8.576599999999999113e+00 8.176420000000000243e+00 1.558489999999999931e+01 4.619999999999999801e-02 8.517899999999999139e+00 1.428009999999999913e+01 1.201500000000000057e+01 7.533400000000000318e+00 1.336299999999999955e+01 3.027000000000000246e-01 6.191499999999999559e+00 1.300169999999999959e+01 1.215820000000000078e+01 8.594910000000000494e+00 1.398939999999999984e+01 1.064100000000000001e+01 9.845629999999999882e+00 1.386609999999999943e+01 2.938000000000000056e-01 1.227800000000000047e+01 2.575569999999999915e+00 1.802310000000000079e+00 1.308750000000000036e+01 1.250289999999999901e+00 3.932729999999999837e+00 1.211059999999999981e+01 2.263970000000000038e+00 4.485710000000000086e+00 1.229780000000000051e+01 2.619629999999999903e+00 5.890489999999999782e+00 1.072700000000000031e+01 2.664350000000000218e+00 3.905800000000000161e+00 1.317789999999999928e+01 1.607720000000000038e+00 2.437850000000000072e+00 1.309989999999999988e+01 1.312969999999999970e+00 7.984779999999999767e+00 1.207530000000000037e+01 2.285930000000000017e+00 8.669140000000000512e+00 1.220969999999999978e+01 2.673140000000000072e+00 1.003570000000000029e+01 1.067999999999999972e+01 2.668849999999999945e+00 8.052440000000000708e+00 1.328260000000000041e+01 1.681669999999999998e+00 6.586920000000000108e+00 1.305269999999999975e+01 1.320389999999999953e+00 1.211999999999999922e+01 1.202040000000000042e+01 2.261050000000000004e+00 3.820000000000000062e-01 1.076420000000000066e+01 2.640050000000000008e+00 1.215740000000000087e+01 1.319839999999999947e+01 1.615420000000000078e+00 1.071870000000000012e+01 1.228560000000000052e+01 5.141070000000000029e+00 1.738350000000000062e+00 1.226970000000000027e+01 1.049269999999999925e+01 1.670619999999999994e+00 1.316060000000000052e+01 9.142269999999999897e+00 3.875739999999999963e+00 1.261330000000000062e+01 7.818800000000000416e+00 4.093790000000000262e+00 1.216409999999999947e+01 1.012920000000000087e+01 4.450059999999999683e+00 1.301999999999999957e+01 6.493339999999999890e+00 3.757270000000000110e+00 1.207380000000000031e+01 5.500390000000000335e+00 4.426910000000000345e+00 1.227640000000000065e+01 5.185940000000000438e+00 5.890640000000000320e+00 1.225479999999999947e+01 1.040300000000000047e+01 5.925410000000000288e+00 1.086219999999999963e+01 1.047700000000000031e+01 3.839469999999999938e+00 1.071490000000000009e+01 5.141980000000000217e+00 3.840920000000000112e+00 1.318040000000000056e+01 6.154919999999999725e+00 2.332199999999999829e+00 1.324890000000000079e+01 9.440690000000000026e+00 2.368349999999999955e+00 1.303969999999999985e+01 9.044180000000000774e+00 7.937800000000000189e+00 1.264540000000000042e+01 7.814659999999999940e+00 8.236050000000000537e+00 1.214680000000000071e+01 1.015210000000000079e+01 8.497719999999999274e+00 1.311030000000000051e+01 6.540409999999999613e+00 7.936079999999999579e+00 1.219630000000000081e+01 5.472850000000000215e+00 8.544449999999999434e+00 1.228749999999999964e+01 5.174809999999999910e+00 1.000159999999999982e+01 1.229129999999999967e+01 1.044800000000000040e+01 9.989959999999999951e+00 1.079390000000000072e+01 1.038230000000000075e+01 7.946790000000000020e+00 1.084740000000000038e+01 5.219059999999999810e+00 7.966120000000000090e+00 1.317009999999999970e+01 6.229940000000000033e+00 6.442389999999999617e+00 1.326319999999999943e+01 9.387620000000000076e+00 6.534930000000000128e+00 1.316789999999999949e+01 9.052569999999999339e+00 1.207740000000000080e+01 1.265320000000000000e+01 7.847749999999999559e+00 1.232429999999999914e+01 1.221490000000000009e+01 1.010260000000000069e+01 3.089000000000000079e-01 1.310500000000000043e+01 6.564960000000000129e+00 1.209919999999999973e+01 1.219919999999999938e+01 5.470379999999999576e+00 3.065999999999999837e-01 1.081930000000000014e+01 1.039899999999999913e+01 1.203250000000000064e+01 1.077299999999999969e+01 5.223449999999999704e+00 1.207349999999999923e+01 1.324160000000000004e+01 6.173510000000000275e+00 1.063850000000000051e+01 1.316649999999999920e+01 9.351390000000000313e+00 1.060740000000000016e+01 1.240390000000000015e+01 1.297029999999999994e+01 1.751419999999999977e+00 1.265269999999999939e+01 1.555199999999999960e+01 4.161529999999999951e+00 1.302820000000000000e+01 1.425869999999999926e+01 3.897240000000000038e+00 1.210500000000000043e+01 1.323199999999999932e+01 4.434590000000000032e+00 1.219650000000000034e+01 1.292960000000000065e+01 5.912259999999999849e+00 1.071819999999999951e+01 1.298639999999999972e+01 3.771139999999999937e+00 1.323799999999999955e+01 1.401789999999999914e+01 2.438730000000000064e+00 1.264470000000000027e+01 3.640000000000000180e-02 8.297480000000000189e+00 1.306719999999999970e+01 1.431290000000000084e+01 8.020179999999999865e+00 1.209549999999999947e+01 1.336890000000000001e+01 8.618359999999999133e+00 1.227340000000000053e+01 1.301939999999999920e+01 1.004059999999999953e+01 1.075130000000000052e+01 1.296780000000000044e+01 8.006729999999999237e+00 1.323119999999999941e+01 1.405139999999999922e+01 6.572860000000000369e+00 1.272600000000000087e+01 5.630000000000000282e-02 7.470000000000000251e-02 1.311839999999999939e+01 1.439049999999999940e+01 1.203909999999999947e+01 1.223670000000000080e+01 1.329349999999999987e+01 3.168000000000000260e-01 1.083580000000000076e+01 1.297749999999999915e+01 1.210870000000000068e+01 1.318040000000000056e+01 1.412359999999999971e+01 1.060410000000000075e+01 7.024920000000000053e-01 1.326270000000000060e+00 1.816130000000000022e+00 1.610689999999999955e+00 2.338179999999999925e+00 2.396520000000000206e+00 7.649479999999999613e-01 1.294130000000000003e+00 5.946200000000000152e+00 1.646230000000000082e+00 2.248429999999999929e+00 6.596949999999999648e+00 6.698889999999999567e-01 1.274480000000000057e+00 1.017900000000000027e+01 1.647059999999999969e+00 2.401769999999999960e+00 1.068820000000000014e+01 7.448449999999999793e-01 6.454360000000000319e+00 1.792850000000000055e+00 1.174609999999999932e+00 7.773069999999999702e+00 2.149420000000000108e+00 1.758729999999999905e+00 5.467850000000000321e+00 2.344759999999999955e+00 7.481820000000000137e-01 9.051679999999999282e+00 1.778119999999999923e+00 1.698069999999999968e+00 1.014209999999999923e+01 2.380310000000000148e+00 7.304019999999999957e-01 6.559389999999999610e+00 5.817770000000000330e+00 1.234299999999999953e+00 7.789979999999999905e+00 6.208990000000000009e+00 1.675920000000000076e+00 5.526729999999999698e+00 6.409589999999999677e+00 7.354870000000000019e-01 9.087799999999999656e+00 6.005399999999999849e+00 1.693429999999999991e+00 1.001009999999999955e+01 6.562520000000000131e+00 7.421299999999999564e-01 6.585650000000000226e+00 9.961510000000000531e+00 1.145250000000000101e+00 7.783249999999999780e+00 1.034730000000000061e+01 1.620900000000000007e+00 5.430869999999999642e+00 1.060239999999999938e+01 7.014219999999999899e-01 9.069160000000000110e+00 1.007799999999999940e+01 1.715370000000000061e+00 1.009220000000000006e+01 1.066450000000000031e+01 7.514340000000000463e-01 1.432859999999999978e+01 1.791230000000000100e+00 1.144120000000000026e+00 2.860000000000000042e-02 1.976529999999999898e+00 1.767830000000000013e+00 1.346749999999999936e+01 2.470899999999999874e+00 6.998050000000000104e-01 1.432370000000000054e+01 5.948319999999999830e+00 1.181680000000000064e+00 2.040000000000000147e-02 6.143030000000000435e+00 1.724269999999999969e+00 1.335989999999999966e+01 6.543829999999999814e+00 7.705859999999999932e-01 1.439100000000000001e+01 1.010249999999999915e+01 1.197230000000000016e+00 4.549999999999999878e-02 1.041510000000000069e+01 1.690339999999999954e+00 1.339020000000000010e+01 1.067600000000000016e+01 5.301980000000000359e+00 1.278419999999999890e+00 1.776780000000000026e+00 6.266770000000000174e+00 2.267999999999999794e+00 2.454079999999999817e+00 5.296979999999999578e+00 1.201659999999999950e+00 5.941469999999999807e+00 6.301610000000000156e+00 2.295970000000000066e+00 6.555450000000000443e+00 5.294719999999999871e+00 1.276799999999999935e+00 1.006010000000000026e+01 6.212769999999999904e+00 2.322290000000000187e+00 1.071780000000000044e+01 5.413280000000000314e+00 6.542069999999999830e+00 1.784049999999999914e+00 5.836000000000000298e+00 7.812789999999999679e+00 2.111209999999999809e+00 6.351490000000000080e+00 5.411290000000000155e+00 2.334169999999999856e+00 5.390019999999999811e+00 9.112949999999999662e+00 1.807539999999999925e+00 6.364510000000000112e+00 1.013829999999999920e+01 2.444240000000000190e+00 5.380799999999999805e+00 6.512749999999999595e+00 5.851370000000000182e+00 5.822169999999999845e+00 7.766759999999999664e+00 6.173079999999999679e+00 6.324360000000000426e+00 5.543050000000000033e+00 6.460530000000000328e+00 5.373070000000000235e+00 9.099919999999999121e+00 5.955610000000000070e+00 6.390530000000000044e+00 1.004940000000000033e+01 6.572530000000000427e+00 5.372679999999999900e+00 6.444239999999999746e+00 9.997479999999999478e+00 5.723980000000000068e+00 7.818310000000000315e+00 1.020110000000000028e+01 6.329749999999999766e+00 5.614779999999999660e+00 1.064419999999999966e+01 5.328039999999999665e+00 9.096199999999999619e+00 1.002730000000000032e+01 6.310489999999999711e+00 1.014620000000000033e+01 1.068009999999999948e+01 5.332849999999999646e+00 1.431209999999999916e+01 1.787039999999999962e+00 5.767030000000000101e+00 9.400000000000000369e-03 2.057830000000000048e+00 6.382789999999999964e+00 1.326950000000000074e+01 2.348230000000000040e+00 5.387019999999999698e+00 1.426709999999999923e+01 5.922780000000000378e+00 5.784370000000000012e+00 6.300000000000000044e-03 6.161299999999999777e+00 6.349039999999999573e+00 1.326849999999999952e+01 6.481559999999999988e+00 5.313659999999999606e+00 1.436040000000000028e+01 1.005799999999999983e+01 5.788949999999999818e+00 1.660000000000000017e-02 1.042169999999999952e+01 6.326050000000000395e+00 1.334060000000000024e+01 1.065119999999999933e+01 9.943740000000000023e+00 1.327420000000000044e+00 1.785649999999999959e+00 1.088330000000000020e+01 2.275450000000000195e+00 2.449609999999999843e+00 9.935349999999999682e+00 1.246150000000000091e+00 5.955440000000000289e+00 1.096100000000000030e+01 2.257359999999999811e+00 6.644870000000000054e+00 9.959239999999999426e+00 1.245230000000000059e+00 1.011999999999999922e+01 1.083649999999999913e+01 2.389710000000000001e+00 1.069909999999999961e+01 9.926980000000000359e+00 6.505550000000000388e+00 1.779740000000000100e+00 1.045700000000000074e+01 7.758969999999999700e+00 2.071309999999999985e+00 1.082010000000000005e+01 5.448170000000000179e+00 2.431820000000000093e+00 1.000949999999999918e+01 9.042490000000000805e+00 1.760860000000000092e+00 1.090150000000000041e+01 1.016380000000000017e+01 2.341520000000000046e+00 9.978490000000000748e+00 6.519720000000000404e+00 5.917609999999999815e+00 1.040259999999999962e+01 7.791570000000000107e+00 6.258230000000000182e+00 1.094369999999999976e+01 5.517979999999999663e+00 6.516949999999999577e+00 1.002590000000000003e+01 9.083819999999999339e+00 5.939720000000000333e+00 1.090140000000000065e+01 1.003250000000000064e+01 6.530300000000000438e+00 1.002260000000000062e+01 6.483159999999999812e+00 1.001810000000000045e+01 1.049879999999999924e+01 7.773229999999999862e+00 1.025569999999999915e+01 1.093909999999999982e+01 5.469920000000000115e+00 1.056189999999999962e+01 1.000730000000000075e+01 9.057949999999999946e+00 9.991419999999999746e+00 1.098639999999999972e+01 1.006830000000000069e+01 1.065939999999999976e+01 9.977230000000000487e+00 1.429770000000000074e+01 1.764669999999999961e+00 1.032809999999999917e+01 1.559900000000000020e+01 1.955109999999999904e+00 1.094880000000000031e+01 1.336749999999999972e+01 2.395220000000000127e+00 9.980339999999999989e+00 1.427749999999999986e+01 5.973620000000000374e+00 1.038160000000000061e+01 4.000000000000000192e-04 6.260030000000000427e+00 1.089339999999999975e+01 1.325590000000000046e+01 6.534060000000000201e+00 9.916370000000000573e+00 1.430419999999999980e+01 1.000699999999999967e+01 1.035779999999999923e+01 1.558849999999999980e+01 1.038739999999999952e+01 1.096030000000000015e+01 1.329710000000000036e+01 1.061359999999999992e+01 1.200190000000000090e+00 3.843189999999999884e+00 4.180200000000000138e+00 1.060720000000000107e+00 3.903999999999999915e+00 8.220800000000000551e+00 1.213640000000000052e+00 3.938349999999999795e+00 5.870000000000000218e-02 1.115690000000000071e+00 1.173600000000000065e+01 4.090250000000000163e+00 1.070070000000000077e+00 1.168490000000000073e+01 8.185330000000000439e+00 1.120970000000000022e+00 1.170330000000000048e+01 1.232160000000000011e+01 5.702700000000000102e+00 3.924090000000000078e+00 4.178569999999999673e+00 5.756389999999999674e+00 3.933009999999999895e+00 8.297689999999999344e+00 5.651989999999999625e+00 3.955979999999999830e+00 1.235079999999999956e+01 5.801739999999999675e+00 1.170509999999999984e+01 4.128650000000000375e+00 5.828660000000000174e+00 1.169170000000000087e+01 8.346180000000000376e+00 5.838370000000000282e+00 1.170539999999999914e+01 6.339999999999999802e-02 1.023070000000000057e+01 3.871239999999999792e+00 4.229320000000000412e+00 1.029570000000000007e+01 3.958159999999999901e+00 8.305590000000000472e+00 1.031809999999999938e+01 3.979319999999999968e+00 1.310000000000000053e-02 1.032039999999999935e+01 1.171749999999999936e+01 4.139829999999999899e+00 1.032049999999999912e+01 1.167769999999999975e+01 8.238659999999999428e+00 1.036660000000000004e+01 1.168469999999999942e+01 1.237079999999999913e+01 3.537920000000000176e+00 3.844739999999999824e+00 2.049319999999999808e+00 3.368090000000000028e+00 3.921429999999999971e+00 6.275500000000000078e+00 3.562170000000000059e+00 3.886499999999999844e+00 1.035800000000000054e+01 3.471330000000000027e+00 1.176890000000000036e+01 2.212979999999999947e+00 3.391129999999999978e+00 1.173380000000000045e+01 6.245730000000000004e+00 3.462169999999999970e+00 1.170330000000000048e+01 1.038889999999999958e+01 8.133749999999999147e+00 3.847160000000000135e+00 2.017819999999999947e+00 8.053610000000000824e+00 3.888790000000000191e+00 6.166649999999999743e+00 8.016719999999999402e+00 3.919109999999999872e+00 1.041549999999999976e+01 8.200810000000000599e+00 1.168239999999999945e+01 1.868179999999999952e+00 8.092890000000000583e+00 1.172139999999999915e+01 6.258219999999999672e+00 8.089430000000000121e+00 1.171979999999999933e+01 1.023509999999999920e+01 1.268810000000000038e+01 3.885769999999999946e+00 2.132670000000000066e+00 1.281460000000000043e+01 3.908259999999999845e+00 6.087670000000000137e+00 1.273840000000000039e+01 3.920549999999999979e+00 1.039160000000000039e+01 1.275389999999999979e+01 1.172470000000000034e+01 2.142549999999999955e+00 1.262400000000000055e+01 1.165559999999999974e+01 6.227780000000000094e+00 1.281460000000000043e+01 1.170720000000000027e+01 1.034989999999999988e+01