-1.058596902672655851e+05
-1.058587517846774863e+05
-1.058589021136268857e+05
-1.058596817913068371e+05
-1.058579408201873011e+05
-1.058606025621189037e+05
-1.058598097539820446e+05
-1.058592021885515132e+05
-1.058595037254272029e+05
-1.058580240650265332e+05
-1.058591108324957022e+05
-1.058588348822474218e+05
-1.058590600421217969e+05
-1.058589373612329655e+05
-1.058602345694347459e+05
-1.058592918632301007e+05
-1.058585125288469862e+05
-1.058583471920268203e+05
-1.058579888074887713e+05
-1.058586601313328138e+05
-1.058591114685345674e+05
-1.058602040391659684e+05
-1.058579420143142052e+05
-1.058599678146832302e+05
-1.058589241826877842e+05
-1.058593139821559889e+05
-1.058590939204463357e+05
-1.058588688098739658e+05
-1.058586915711630718e+05
-1.058598836725764704e+05
-1.058597277008901729e+05
-1.058586658870988467e+05
-1.058601513336960052e+05
-1.058591790144596744e+05
-1.058595935183317924e+05
-1.058590250419741060e+05
