1.585481179877315405e+00 6.767545172010811516e-01 -2.505715072813401445e-01 -5.613310018816954905e-01 -1.093634246673005128e+00 -4.635570827822094175e-01 1.223387549536018304e-01 2.669201251940884756e-01 5.923328521424977566e-01 1.104598459900307361e+00 -6.147816699199625257e-01 1.302429952115903289e+00 -2.328488917256243962e-01 2.498665107362397220e-01 5.721990558428170781e-02 1.176326073381684933e-01 -2.612729537438383542e-01 -4.892943417747852575e-01 4.641592351923571891e-01 -7.625177840001218232e-01 -2.061917947900320236e+00 -5.285232086111247840e-01 -1.173779652600257295e+00 -3.980088591494619354e-01 5.145348635955399041e-01 -2.609104281681303150e-01 1.366066817500555697e+00 -5.803962476192181530e-01 6.622174987255238232e-01 7.183878799126136583e-01 -2.126996688057008478e-01 8.570207453874389980e-02 -9.378490363707765454e-01 -5.252249972031933778e-01 -5.307724098425393722e-01 -1.486758009412216142e+00 2.625919297746061309e-02 1.188358322950470392e+00 -2.044741948921877384e-01 9.298652461744022490e-02 1.460521442144445015e+00 -9.845248470190376411e-01 4.318034418949033837e-01 -9.714029638404289013e-01 1.563441681756961854e-01 1.206695946433203048e-01 6.035248651287200561e-01 6.619367342371029750e-01 7.282578315440196848e-01 -7.326055673491429499e-01 -6.288168090169509172e-01 -6.472603619586848600e-01 -9.977752853663373056e-01 9.333208091088113223e-02 4.691821427434446634e-01 8.988515688380805946e-01 -8.700459550791922458e-01 -1.624515671298594199e-01 9.824674500993099135e-01 5.410897334609894305e-01 4.924146328292487440e-01 -2.810750777082967611e-01 -1.231450529716306419e-01 -2.204834271595923212e-01 2.885384765818106989e-01 -4.447016390799902186e-01 -7.807391936103579289e-01 9.370622787383887653e-01 8.440443866597879818e-01 -1.175691525069027188e+00 -2.823832551048944262e-01 -2.716730668909252480e-02 -1.475353109066641633e+00 -5.565749748608102010e-01 3.649989771537092698e-01 -3.691389678062282353e-01 -1.183684057016872293e+00 5.195685697807974623e-01 -7.007192575277479962e-01 8.573945838179919399e-01 5.595224877685531784e-01 9.770398508771838131e-01 -1.202419687301871765e+00 -1.016675980487935727e+00 -6.542846163759509226e-01 6.157628029674108161e-01 -3.096168962610313935e-01 1.012706196878763454e-01 1.733221921943547406e-01 -1.812085375728614611e+00 -6.770105990971132526e-01 1.500926845884642979e+00 5.685892267059790284e-02 8.412218293760125309e-01 -6.004487970522862650e-01 -1.481346351031007424e+00 3.856649918517698894e-01 3.103018381998161046e-01 1.167254192237511701e+00 2.583722349174987776e-01 6.343086858234225911e-01 -3.175302382249632904e-01 -7.309939997544349088e-01 -2.630768398709078526e-01 4.254831555813881061e-01 4.361259808869633603e-01 -7.425151139725058025e-01 -2.094873322504547941e-01 4.662803954757556157e-01 1.080079389686245672e-01 8.535338149918691997e-01 -7.784349707667437279e-01 6.049086329645079335e-02 -7.546178117737338820e-01 1.602895263028172979e+00 1.104385058320280555e+00 8.730983690045869272e-01 5.190625766368303085e-01 1.132618344468157456e+00 -6.574799836489298999e-01 -6.333712615333291218e-01 -3.109867801386008157e-01 1.506055168674056866e+00 -3.002843052347530309e-02 -1.870817090096700552e-01 -4.253684843709159003e-01 -1.570270532317817880e+00 -5.399882727756464273e-01 2.063115053631168760e-01 -4.167660867028013527e-01 6.229721768275917615e-01 -1.049777393763796196e+00 1.817960346937784744e-01 2.356364820035160637e-02 -2.900682830892313824e-01 1.945037131188655399e+00 -8.324183714240656062e-01 -3.937737376721117677e-01 2.148208290890992953e-02 -3.136776969296369288e-01 8.759852038727078405e-02 1.073553929323499689e-01 7.132744695227677401e-01 6.879964095927555423e-01 -4.158291766333827022e-01 2.742086890381829622e-01 -3.234792572112993869e-01 7.165423419108882808e-01 -8.826597882311350979e-03 1.094967620882666415e+00 -2.363265661490483172e-01 -2.337765458228973359e-01 3.176330823599159414e-01 -7.815038397537309445e-01 -1.580324060730114555e+00 1.716108657887426003e-02 -9.477637252008870306e-01 8.169783814436238911e-01 -5.763817268113413661e-01 -1.165933673544719273e-01 -8.203984631514742443e-01 -3.179380152200504961e-01 -7.314459997275518655e-01 -5.386811238203982333e-01 -4.567575427998147863e-01 -1.348750436277902809e+00 -7.448599602494262450e-01 -9.809936936454383138e-01 -6.864378067275479500e-01 3.855544344066957896e-01 -9.392276619998168874e-01 -5.581721442766248709e-01 -5.660232655389103168e-02 5.717187737325881702e-01 -4.382024039716573838e-01 1.513747909968515160e+00 5.110741584543830873e-01 5.901777532945648996e-01 -1.643557777105752571e+00 2.595698548690223983e-01 2.707520976624242515e-01 -2.468156394728693304e-02 1.447049374686322443e+00 9.849233680419791082e-01 4.044484446595222882e-01 -7.574403690575094439e-01 2.556756616990402686e-01 -1.261136489270389127e-01 1.587496924922387365e+00 -4.616441818720901091e-01 1.355685730518435106e+00 1.410026514544717280e+00 -4.737983017407945696e-01 1.101720366783657479e+00 -9.418681851647261460e-01 -2.299766607246667594e+00 -3.736265716348872168e-01 3.998801081849254757e-01 3.474023456633105328e-02 3.425743277479583182e-01 -4.801931500521502971e-01 -2.183648379795676830e-01 5.130071139708181766e-02 -6.264601356645108643e-01 -1.282749184230689066e+00 1.213976796967175975e+00 5.529744016961178898e-01 -7.542146627647194901e-01 5.759245846314768880e-01 -3.758449196258158986e-01 -3.643366609246141419e-01 -2.674897274355237276e+00 -3.566027819761747875e-01 -3.750190812221461112e-01 1.116969580893761860e+00 1.064661511194818777e+00 -3.232380877148354203e-01 -2.460535644328701865e-01 9.129586988295358418e-01 -1.325064403556957537e-01 2.085689341253275653e-01 4.383772390010768905e-01 1.119833790052193190e-01 3.350913884888032657e-01 3.380085623767352665e-01 2.702162797193209398e-01 -6.276803813257242348e-01 -6.433857091743436785e-01 4.851224694404310256e-01 -5.215508904820098657e-01 -1.838297260403997102e+00 -5.655126444088703908e-01 1.467173400793182481e+00 2.270469398522705629e-01 2.307272172215512063e-01 -1.077419326135695243e+00 9.258486684838264091e-01 -1.788371060870557416e+00 5.097238149624547798e-01 -1.295720400751592338e+00 1.214701333897917346e+00 -1.485763506627224007e-01 1.056598531014530939e+00 1.765745865401648684e+00 -1.694357123344940041e-01 -1.337377931834838662e+00 5.042936446369548076e-01 -4.178166395413427381e-01 2.853924744936090635e-02 1.211529106555302882e+00 4.263419041082427419e-01 -9.011151682483883874e-02 4.053251909099935824e-01 -9.675817900062629873e-01 -4.026733548902394211e-01 -1.174902710553940244e+00 9.884046420101266772e-01 4.763796895281060539e-01 1.471933541579465876e+00 -3.870652147491502881e-01 2.725194741215856142e-01 7.313817221432065141e-01 1.086735462100381300e+00 7.148654682904852509e-01 2.128302808570907423e-01 9.316655327567483491e-01 2.224355116851286063e+00 -2.757086707464673214e-01 -4.195223095195324547e-01 -1.193804948337562788e+00 1.403107161145102699e+00 -4.377756008116038267e-01 3.339364488532850506e-01 -3.580811664161190899e-01 -2.139384264112055567e-01 7.351247344348081636e-02 2.850268635938523754e-01 -6.455428649049755885e-01 -1.327717268018061558e+00 -8.935772073770337220e-01 1.495662254616416664e+00 3.833288873263203667e-01 1.574188893859513882e-01 3.687214206183204723e-01 1.556748071233568620e+00 -1.863841686643536555e+00 3.146567730943861108e-01 2.123114836183220611e+00 -7.932393839931779489e-01 -2.472049045236651144e-01 -1.745763764201023305e+00 1.420723333021142620e+00 1.918439066786525593e-01 -8.440161045226760583e-01 -1.143133643046391201e+00 4.034225744133694835e-01 4.614595766498500451e-01 2.092232799339638571e+00 2.239803334362523657e+00 3.586349820828391710e-01 6.864794586022038292e-01 6.989832485297473585e-01 -4.358092209513091952e-01 -1.654121412427414395e+00 4.100930450063984822e-01 -3.567822449916671079e-01 -3.876750804694194530e-01 -5.771114059488304804e-01 -7.128677209690300609e-01 1.211171723186342586e+00 1.036651911040464169e+00 6.508609351233771712e-01 2.077862902583379190e-01 -1.065892041269527191e-01 -6.574866685177017667e-01 6.601683293365921967e-01 -4.023571091752600748e-02 1.353638618012202421e+00 -1.186998723486396123e+00 5.372577609926535401e-03 4.606501933077726263e-01 -1.374938666802246190e-01 7.782678490474456701e-02 -1.570663396913337007e+00 -2.416976010969506261e-01 2.737763837169094217e+00 -2.491306609506534764e-01 -1.213678034755138579e+00 -2.997010761454365735e+00 -1.276187728420710155e-01 8.839196288843049754e-01 -2.449478357159267095e+00 1.009138533837255824e+00 2.542245309548584187e-01 2.227415244086802470e+00 -8.544460424688992140e-01 -2.893380897310675604e-01 2.132467996036489399e+00 5.259809015950952515e-01 -8.861410621992823478e-01 -1.370146644334127251e+00 -9.911588079441583377e-01 -2.622211766681017409e-01 -1.493533381022896789e+00 1.431877807898107147e+00 -8.438551534514752150e-01 1.450754334647991861e+00 -1.075000946302283600e+00 -1.904011577314692838e+00 -1.267935515032109217e+00 2.788670141308632541e-02 -1.564843961537041306e+00 1.694943334914170430e-01 -1.307205519522429971e-01 3.435734585190232671e-01 4.598032718564376009e-01 5.049179085361175101e-01 -5.724407395599558079e-02 8.660376049194126180e-01 4.488992224480827242e-01 -9.340376327294311887e-01 1.213053770855975877e+00 4.514019344721554861e-01 -3.459836108216386985e-01 1.371249647681494599e+00 -8.574141242036327215e-01 1.647398491325559267e+00 -9.038292249697889025e-01 1.065351595340351176e+00 -3.614328567742260412e-01 -1.583633584992890864e+00 9.715721424424258457e-01 -7.136225969195825192e-01 8.197094074472914826e-01 -4.900872700552702521e-01 -2.812067182010360988e-01 2.612559844615711668e-01 -1.715697281347615746e-02 5.487073985369322893e-01 1.620264608980326537e+00 2.253500116255518215e-01 -7.529383670499570913e-01 -9.398920351116110128e-01 -5.411267573495722738e-01 6.688596871814407319e-01 -1.418597030530996506e+00 8.221154459845089191e-01 -1.818954849722777212e+00 -4.435168746453356792e-01 3.914900836554880970e-01 5.375287552882538344e-01 1.657199023165872198e+00 -6.468412721087527517e-01 6.578733624651238177e-02 2.017904771905983274e+00 -3.582328615151743056e-01 -1.098350164481258995e+00 1.556869941533487456e-01 5.073666273893401302e-01 8.452332648598407383e-01 -4.941532129306233645e-01 -1.438251058941123040e+00 -1.383379084957810479e+00 -9.864346626051083422e-02 3.147277355475034955e-01 7.867843718628748650e-01 -5.925868771558306936e-01 -1.657468474799448144e+00 2.294478361827402502e+00 -2.896113465976366985e+00 1.583477776128437542e+00 -4.546045008345810934e-01 1.292836651207520005e+00 1.761776596013150953e-01 -1.486521467901825044e+00 8.086027550930798835e-01 1.075825242043929153e+00 1.116547405719781283e+00 1.180711347296065972e+00 -4.636650691239097011e-01 -1.712907634187024852e+00 -1.608182480006088655e+00 1.326754646914904745e+00 1.851585236860554540e-01 -1.337606245814433603e-01 -9.452769540177319296e-01 6.197685820238166832e-01 -8.730135225932509346e-01 4.566505848994640293e-01 -1.176101873167487932e+00 -1.540929100615826552e-01 2.079867848994281232e+00 -6.529738678759794412e-01 1.147696323093565729e+00 -2.744321179213675688e+00 9.782071318088962630e-02 1.526788546280511527e+00 -1.063520969738193989e+00 2.049148820104598756e-01 -5.750365255261608022e-01 -1.230656058773797135e+00 1.261992666693870113e+00 2.689019316746260602e-01 -6.257947341113673234e-01 4.043651409102105854e-01 1.264880015782665970e-02 -1.092283388960402002e+00 5.215277505516454498e-02 1.179143488458712863e+00 1.300673888511586940e+00 -8.558287818633376620e-01 -2.712704321025856569e+00 4.604810147057755709e-01 -8.503554170011575764e-01 1.669840110013577350e+00 2.103044289026536340e-01 -3.278958985868409837e-01 -4.594767417279629201e-02 2.058912842277003552e+00 3.041954676870023966e-01 -1.638019106217877274e-01 -2.975311677420705569e-01 2.880736210918247164e-01 -6.875140705998274981e-01 -1.658402813765493367e+00 4.585357178931461636e-02 2.031619037301919395e-01 -2.320811602582028843e-01 -8.828351374812292152e-01 -7.615726463999069606e-01 1.600177092541374302e+00 -2.862810478195999542e-01 -5.393994901030425559e-01 3.437842889956762571e-01 -5.043270689808144747e-01 8.021107190741938453e-01 -5.639674112812068651e-01 2.750664091236880160e-01 -1.027480271085386532e+00 -4.338695805661020866e-01 -1.131798162491909787e+00 7.116659872521083341e-02 4.088393750013256667e-01 1.019091274997298679e+00 4.681017651057670648e-01 1.835819230972312865e-01 -7.203414042560393193e-01 -1.363548678856240093e+00 -2.310928281213079083e-01 -1.319299989792861727e-01 1.228198083948428554e+00 2.633692771686457323e+00 -1.679131049165200062e-01 -4.625183570191876425e-01 2.840236190573892094e-01 3.612379671384908231e-01 -2.465893823759734982e-01 -1.352582922966913515e+00 6.279014962158723234e-01 -1.874360070545819379e-01 -1.556102724286740679e+00 -2.827437237979035234e-01 1.463306461318963025e+00 5.787980497620538456e-01 -1.282026189961971818e+00 1.149340286590783800e+00 1.135378681050286609e+00 -1.454623331004910591e+00 -5.502803995810332527e-01 -1.178846783129374298e+00 -1.519213561520573741e-01 1.685317123882602297e-01 2.558427834183383265e-01 -2.717049485727606184e-01 6.982700244538505574e-01 1.723382309331952245e+00 4.991164708834382457e-01 -1.948237640668381898e+00 -3.670985401687676397e-01 8.744553973652871015e-01 -7.568310175579149313e-01 -1.311195871958592551e-01 -3.307410815803061288e-01 3.022023483516200065e-02 1.332179675033656974e+00 1.481150947174597610e-01 4.859925308221305085e-01 -6.720041466076180914e-01 5.151066769858766436e-01 1.857215953249212181e-01 1.169967734738237342e+00 1.443621579668350474e+00 -5.933972889392576944e-01 -5.038236469402211926e-01 -7.828320717566443765e-01 -6.949265616265399848e-01 -6.231794077595212977e-01 6.528545686794344494e-02 5.572002672013223190e-01 5.792011987710683485e-01 2.068924204593969307e+00 8.731621323682575708e-02 -5.180156233430123491e-02 -1.958192438711124028e+00 1.543697150508077209e+00 -1.022502100733003461e-01 -9.035500031433925106e-01 1.600347299584720939e-01 -6.741870133719881641e-01 -1.021605299876216177e+00 -2.955365057446638355e-01 4.835844354022140190e-01 6.338865106494420143e-01 -1.054069079515370433e+00 2.461597510022087487e+00 -2.090340981477184279e+00 -1.996766188407814724e+00 -1.959230650253470873e+00 1.122401293881285955e+00 1.388591225717210886e-01 -9.674342086726060719e-02 1.167815721214353064e-01 3.820196814883731751e-01 5.245277139682144041e-01 2.192559824089324039e-01 1.246403552717747276e+00 1.478362328455356201e+00 1.504208602230981962e-01 -4.139887808384050405e-02 -3.012870355505413711e-01 2.167116185102038184e-01 -5.933854618637380840e-01 -7.135619188799603441e-01 -2.821631686560957877e-02 -7.886947016696203017e-01 -7.339795649921104781e-01 -1.360024210351412854e+00 -1.328431520535307442e+00 -7.440449204799264304e-01 -2.283561456902178100e-01 7.025941061079348238e-01 3.000811880682215937e-01 9.025241328972396504e-01 5.850802837456366978e-01 1.833428104834663730e-01 1.335508225461399245e-01 -1.899366621959556467e-01 1.884011992611125674e-01 1.103359702294802736e+00 1.591767013405621434e+00 8.797559840807468445e-01 -7.455011934308560795e-01 -1.392598547435640821e+00 3.899772464303345454e-01 6.743824172283982010e-01 -1.776262192421232400e-01 1.269891096258233709e+00 -4.994609987355296821e-01 -2.857539716279676179e-01 -3.204340423753513911e-01 8.625074799871627895e-02 1.589944615334260569e-01 -2.937958687605902730e-01 8.043079840174571782e-01 1.391470861495885114e-01 1.030351165112589618e+00 5.252270540858924308e-01 3.405945781501197311e-01 7.538932748429924002e-01 -1.287171482033653003e-01 1.190562272762505591e+00 7.975891766810003780e-01 -1.345732475137717321e+00 -7.275919157702012141e-01 3.313411771077549028e-01 1.586761075136800869e+00 9.122665578013045007e-01 9.400987518228659523e-01 -1.412151788593513979e+00 3.293310884901052837e-01 -5.484662290404682672e-01 -6.058506852406742027e-01 1.769890998260915449e+00 2.468454642720055714e-01 -1.591651827974474021e-01 -2.003921054876470986e+00 1.018367252287232017e+00 -7.810333278363225107e-01 7.495897620158987751e-01 -1.030754314121604232e+00 1.572934195413091818e-01 -1.093704180684772709e+00 -7.830382742472244972e-01 -9.532298909736204306e-01 5.867005930918156587e-01 -4.070205764746880339e-01 -4.121087900514704971e-01 -1.459209150982449243e-01 2.246491288458494662e+00 3.934050414483064584e-01 -4.463846833484903520e-01 3.027772470660053394e-01 -3.865828757562222995e-01 8.730088946071782319e-01 -4.618904935753016527e-01 1.719581704324776972e+00 3.523203521967462892e-01 -1.529929920382640252e-01 -8.514815602788889937e-01 1.316044458700935449e+00 6.418728719491901824e-01 -4.701468207293005852e-01 7.301650760267165419e-01 5.570305743786504449e-01 1.280435705414929126e+00 5.238468857948277435e-01 -4.649999859955951109e-01 3.870446459221597024e-01 2.024877604255772845e-01 1.095611425167469788e+00 7.971433473559805805e-01 3.429692492261764425e-01 -3.228380240298696080e-01 7.469667223539312451e-01 6.224780107591443290e-01 1.464733423691430891e+00 1.759832841862545849e-01 -6.919348257407672564e-01 -1.276320397354798741e+00 4.676842179178593573e-01 -1.030610332332670520e+00 -1.034761121619359459e-01 1.621003544089961168e-01 2.168059265819553882e+00 -1.934842706311473703e-01 1.082290538587727668e-01 -9.272329505402889804e-01 -6.330251910192133957e-01 7.423526202392806139e-01 -1.143595413212328715e+00 3.449217451282525215e-01 -1.015251589218841566e-01 -4.762645040969590848e-01 -2.500876256263879216e-01 -1.196680984571513617e+00 -1.611312541253372865e+00 -6.191510029934259585e-01 -6.726854890016794597e-01 -2.288397188127651916e+00 -1.621260654427342796e-01 -2.135733297321236457e-01 2.361131645690215941e-01 2.165870228407086540e+00 -1.080435744613856386e+00 7.847881672034438816e-02 -6.988685773192749862e-01 -9.997272670477386214e-02 -1.104942987752398631e+00 -3.059993538140718949e-01 7.270180454971654216e-01 -3.764835817038719168e-01 7.950895499809761402e-01 -5.124440423319525095e-01 -9.315529184289753628e-01 -6.693168293613054320e-01 1.268702732278855994e+00 -2.616406215262940815e-01 3.370341141980589539e-01 -1.172242647003389981e+00 -4.509309083340722890e-01 3.374089810699613112e-01 2.116803805841851016e+00 6.068786123695261159e-01 -1.302093137573933523e+00 9.136919775117482434e-01 2.000544167705300413e+00 -1.873096630347926173e+00 9.518224689867933741e-02 -8.469934422295554155e-01 2.015189686743233399e-01 5.228271861967722645e-01 1.525835181149500563e+00 -7.822931684894924853e-01 -3.850067893880729231e-01 -2.405298059445631909e-01 -6.338592569536795063e-01 -9.058316002773169062e-01 -2.534341737777471848e-01 -5.353217201521699442e-01 -1.429096388268312756e-01 1.170757063473998744e-01 3.749789720095145773e-01 1.957941499021839393e-01 -6.532608030124973375e-01 2.690798520280941464e-01 1.090986010197974171e-01 -1.026884289323336086e+00 -5.867772119723554253e-02 -1.010947562171073066e+00 6.733421488033520808e-01 -5.888330662300589324e-01 -3.732378208047661960e-01 -7.095628246923266214e-02 1.601667818277513256e+00 9.050705536786673999e-01 -1.354420747658517499e+00 -1.611492004268865408e+00 8.261957870387552916e-01 1.105481376798875814e+00 -4.742965815746400665e-02 -9.998573648784537804e-01 -2.787630901324936517e+00 1.727488361419937224e+00 9.568253219315651092e-01 2.112747633159318905e+00 5.636048857054987149e-01 2.064346097926552215e+00 4.773906473746906687e-01 -8.100348596722956040e-01 4.163099729642862901e-01 2.642739456017567101e-01 -8.273229587578364574e-01 -5.770142182413001697e-01 -6.682199966620353537e-01 -1.061935113177223888e+00 -1.633324271457288757e-01 1.074791658487654900e+00 3.659873092906042458e-01 2.847404426780091868e-01 1.024521445322798652e+00 8.549751755432307698e-01 -5.987472408394945989e-01 -1.059389206616471180e+00 -1.222760714533482007e+00 1.319793641640634174e+00 4.423490794929482717e-01 -5.893040923681421850e-01 8.515597218214530917e-02 -1.258577727192767393e+00 7.103526676487629254e-01 -1.448001197155309283e+00 3.352631381941741928e-01 3.949554167827176721e-01 -4.534217932826254960e-01 -3.981117032844145864e-01 -6.315061831459628516e-01 2.684771853972716116e-01 -1.598465251915087426e-01 2.477299238325983977e-01 1.446600460037254232e-01 -8.710666831185973624e-01 -4.609926642771650096e-01 9.858278822088877014e-02 -2.229475726330578667e-01 1.448581752297116942e+00 5.215503762613350469e-01 4.946900593150762027e-01 -7.391145726502963420e-01 6.478897680645949730e-01 2.742553802754514436e+00 -3.396849217764634776e-01 1.931875653018089861e-02 -4.825832477484500727e-01 4.122558571644528019e-02 7.185118070952316582e-01 -2.127233229567399853e-01 5.205311908839542756e-01 1.665149389018387160e-01 -7.767586113670155168e-01 -1.991550448103691195e+00 1.223804068282576679e-01 -5.643129675746477725e-01 -4.496808378737228717e-01 -1.789719347479786782e-01 1.642472257261327340e-01 6.918582068602274759e-02 -1.116565403443397830e+00 8.346727148622276049e-01 -4.410861535157297175e-01 8.788946644505184480e-01 -3.442866825949199572e-01 3.283489270013074668e-01 1.062004532968316983e+00 -4.241940043497565704e-01 -1.546446174235361459e+00 -2.903598462118221410e-02 4.994769395764472875e-01 1.537812923326760950e-01 -4.621002956106051163e-01 1.793235074233143100e+00 4.890125488450151048e-01 8.284203056777811325e-01 -1.621160381395764016e+00 6.695148043210891187e-01 1.018682469560861836e+00 -1.095434019034676743e+00 -4.766979921257844671e-02 -3.053303527162048447e-01 3.533127980990394268e-01 1.035743283108157310e-02 -2.797992962142090700e-01 3.217105437783837285e+00 -7.026784382985961086e-01 7.285185414261245995e-01 -1.223943422085437271e+00 1.025350369050517019e+00 1.116573630974194264e+00 -1.221815062712592326e+00 -7.211317614331503867e-01 8.481663795886902335e-01 -1.727817462651785596e-01 6.118392992189672919e-01 4.892840573612899924e-01 -7.966908331621890271e-01 -5.731297952641386528e-01 6.293361718984619158e-01 1.424819100695632113e+00 1.644179469901541069e-01 3.160857923495532518e-01 -8.877233192155288277e-01 4.009121490791753284e-02 -1.776119753294322701e+00 4.408907496593196806e-01 3.735170426311626435e-01 -1.515305484392373385e-02 9.588847757339920008e-01 -3.430566667408861958e-01 7.498869815659118254e-01 -3.185956006189377465e+00 1.201085284650861063e+00 -9.866552632745817508e-01 5.059664044919596204e-01 7.180099277166626104e-01 8.625383332276486126e-01 -7.390245840322127169e-01 -5.580502739767060350e-01 -5.190306949549949866e-01 -2.275791582506505317e-01 -6.707638463400891204e-01 -8.114093715359377290e-01 -2.874714686816769449e-01 3.995648909112955449e-01 -1.633241996149326913e-01 -8.485057652340342038e-01 -8.249385174889591055e-02 5.400227255608556209e-01 6.077317044689583003e-01 2.564104830432770155e-01 1.180043374639548448e+00 8.739103234500380513e-01 1.148873374218098542e+00 -3.600362334215690407e-01 3.704116639762673469e-01 -1.583568278967195875e+00 -5.301352904265075328e-01 2.010580726835330179e+00 -4.498813839368804302e-01 8.328606012043618945e-01 -1.269188156595832506e+00 -4.638399041533292078e-01 5.249329198599277380e-01 6.685897213271901895e-02 2.215488923977018132e-01 -1.124549193639772238e-01 4.452744809116764846e-01 5.453582792821991543e-01 1.480008348835273768e+00 -3.042571741679739872e-01 -1.998821528444843620e+00 5.604110610945440829e-01 -5.157329977677382882e-01 -2.408707342519313122e-01 8.600808726229550727e-01 -6.517284254017027822e-02 3.576075691746621321e-01 4.914972631454710833e-02 3.802764734009257408e-01 -7.419726111606306240e-01 7.616533790458447639e-02 -1.512394995373213258e-01 9.302817649209604856e-02 3.067012650351237379e-01 -7.651464800895115825e-01 -2.983230675812059696e-01 -1.230568641259087270e+00 -1.823895996186577273e+00 -1.234075112040297961e+00 1.968148779415890059e+00 1.492167096690050876e+00 -5.292647148241333976e-01 -1.615681360106161575e-03 1.007785105021278937e+00 -7.979902688073157169e-01 -3.886999222742226201e-01 8.263629087580532939e-01 5.005701727309941340e-01 -1.093701095360724435e-01 -2.747892441799906077e-02 1.572231769971365045e+00 1.217990803554378054e+00 -1.447547140299493496e+00 1.316123134464174171e+00 -4.884957570668779225e-01 2.736702999917057788e-01 -1.981820878716495926e+00 -4.609114174105524014e-02 6.751424353856982918e-01 -6.082531242331682408e-01 9.174478453202189465e-01 2.653543232394343643e-01 4.874606308485795458e-01 -2.200741075024807702e-01 -7.157113613004708608e-01 -5.198081966152371391e-01 2.948834454877145017e-01 2.005317164008453279e+00 -1.466959999213155896e+00 4.576918817658596206e-01 -2.083861800975167267e+00 2.956619755893060697e-01 3.248126314209605625e-01 3.383458911393800173e-01 7.186696728423838665e-02 8.822777222697859578e-01 5.753877382470240498e-01 6.478326895696963073e-01 4.262503728281348825e-01 -1.103415238127676945e+00 -1.282209252522187592e-01 -1.099190401063822042e+00 -4.034781102462439706e-02 8.006791287156528325e-01 -1.153460736857661928e+00 3.136944605236341665e+00 -1.386184672959318853e-01 7.639272628696479606e-01 1.045100556726824337e+00 -3.947415009820161996e-02 -1.125309726017747147e+00 6.009342213692627777e-01 1.127427800977097050e+00 5.811979176511741091e-02 -1.168124767839885614e+00 3.910385979030459591e-01 -1.522854243897897863e-01 -3.597981492491536537e-01 7.640085097362605548e-01 -2.494885585402887573e-01 -1.347533275940738351e+00 5.154074960806132033e-01 2.304438816297566528e-01 -1.071730502810789298e+00 -3.163963816371102578e-01 -3.813810194103171569e-01 -2.262131824502094268e+00 -3.825596131968745511e-02 4.352641470360600895e-01 7.340638971827716519e-01 2.182763920235084032e-01 7.824263516442562238e-01 -8.699945330117159203e-02 3.509509825398517413e-01 -1.556340294238481303e-01 -2.747424500985871654e-01 -4.679978925294649428e-01 -6.820612745646379427e-01 1.415063306054023529e-01 4.189695222941619002e-01 5.103069412076363109e-01 1.885188015294309016e+00 -1.190179178359807161e-01 3.794979432993341173e-01 3.235939284217716205e-02 -2.579603441570134659e-01 3.851348303360889735e-01 -9.300956170366961873e-01 2.155690201708798659e-01 -3.211441811271994462e-01 -6.686817668279726457e-01 -7.673406597087263636e-02 2.357789211304254784e-01 -6.799077183787294310e-02 2.776627093105676902e-01 7.326539040925706958e-01 -9.378294959851356527e-01 -2.959705079941640227e-01 -1.811044078862218965e-01 -7.405158239890262672e-01 -1.716129226714416534e-01 8.194980627499639514e-01 -7.978709696107706417e-01 -2.438125907322518937e-01 -7.608671356341317749e-01 1.894265552865904978e-01 -5.866306590800479670e-01 2.056214212175845601e-02 -1.947096584991082069e-01 -7.272458452560854880e-01 2.739510644801265368e-02 -1.449904327872608034e+00 -4.993864367376889546e-01 4.646652283363242320e-02 1.234802734295088023e+00 1.204664774767888122e-02 -2.983405510841478925e-02 -1.486134773954403077e+00 3.811311081623822150e-01 7.201526852684011493e-01 -1.653663241806200279e+00 6.391418459455224799e-01 -6.152953763740510729e-01 -8.060995288483324694e-01 -9.273851598600190149e-01 5.894043653997208532e-01 2.446671226495734430e+00 1.533706871238776470e+00 1.109087092170315980e+00 -1.215103454465582405e-01 -6.703972069989829752e-01 1.043981098317864564e+00 -2.870575210384924691e-01 6.898666301868694450e-01 6.207363453337210596e-02 -8.455109440242127850e-01 -5.757271238923677981e-01 -1.132133948592530581e+00 3.023195906654660425e-01 5.278840323123942246e-01 -4.783820648356341687e-01 -9.146772243245945289e-01 -6.103136064769446589e-01 -1.919045847182746511e-01 -6.499929306243766858e-01 -8.576650638929173009e-01 7.790551209005083244e-01 1.701594265121558314e+00 5.344778840248834983e-01 -1.139004451028042375e+00 8.913110368633521130e-01 -8.935535532259946123e-01