5.889619999999999855e+00 4.365400000000000169e+00 1.178400000000000070e+01 6.413840000000000430e+00 2.541230000000000100e+00 7.081129999999999924e+00 8.128190000000000026e+00 4.234099999999999753e+00 2.340300000000000047e+00 1.299430000000000085e+00 9.467000000000000526e+00 2.145709999999999784e+00 1.044899999999999984e+01 1.653040000000000065e+00 3.863630000000000120e+00 1.656700000000000061e+00 4.590040000000000120e+00 2.575299999999999923e+00 2.262989999999999835e+00 7.359919999999999796e+00 7.018180000000000085e+00 2.153399999999999981e+00 7.259649999999999714e+00 2.989799999999999791e+00 4.376800000000000246e+00 5.206599999999999895e+00 4.487490000000000201e+00 5.238260000000000138e-01 9.513780000000000570e+00 9.905829999999999913e+00 1.090872000000000064e+01 4.884599999999999831e+00 1.048517999999999972e+01 2.942989999999999995e+00 8.640000000000000457e-02 1.086940000000000062e+01 7.389149999999999885e+00 9.556549999999999656e+00 4.450999999999999956e-01 6.436200000000000365e+00 9.076529999999999987e+00 1.062377000000000038e+01 4.864320000000000199e+00 8.074479999999999436e+00 7.184619999999999784e+00 7.927810000000000024e+00 1.915000000000000036e+00 1.131399999999999961e+00 1.166190100000000029e+01 7.169200000000000017e+00 5.263799999999999812e+00 1.003438000000000052e+01 1.136459999999999937e+01 3.460529999999999884e+00 1.151069999999999993e+01 1.699359999999999982e+00 6.224499999999999922e+00 2.204000000000000126e-01 1.182929999999999993e+01 6.813340000000000174e+00 5.541500000000000092e+00 1.024259999999999948e+01 3.988799999999999901e+00 1.001399999999999935e+01 7.157079999999999664e+00 3.215279999999999916e+00 8.574970000000000425e+00 9.160000000000000087e-02 5.449220000000000397e+00 7.078999999999999737e-01 9.297840000000000771e+00 6.190039999999999765e+00 7.290770000000000195e+00 7.552419999999999689e+00 3.121570000000000178e+00 1.032140000000000057e+01 1.804499999999999993e+00 8.288690000000000779e+00 1.288499999999999979e+00 4.359600000000000364e+00 6.487599999999999589e+00 6.737549999999999706e+00 1.185365700000000011e+01 3.299999999999999982e-03 1.100569999999999915e+01 7.274519999999999875e+00 7.593399999999999928e+00 4.692750000000000199e+00 4.762179999999999858e+00 2.021999999999999797e+00 5.392540000000000333e+00 1.242999999999999938e-01 1.016849999999999987e+01 8.252129999999999299e+00 5.340090000000000003e+00 6.378709999999999880e+00 4.782670000000000421e+00 7.075949999999999740e+00 2.981300000000000061e+00 3.389689999999999870e+00 4.586929999999999730e+00 9.107300000000000118e-02 1.047630999999999979e+01 7.474770000000000358e+00 1.142174999999999940e+01 4.649499999999999744e+00 2.397110000000000074e+00 2.110199999999999854e+00 6.480900000000000105e+00 2.557069999999999954e+00 2.975490000000000190e+00 9.431620000000000559e+00 7.389560000000000350e+00 5.611419999999999852e+00 6.465399999999999814e+00 1.003355999999999959e+01 6.228839999999999932e+00 3.475800000000000001e+00 7.141759999999999664e+00 9.107799999999999230e+00 6.734820000000000029e+00 2.354999999999999871e-01 3.614199999999999857e+00 7.421599999999999753e+00 6.584559999999999746e+00 1.103609999999999935e+01 7.239810000000000301e+00 2.289629999999999832e+00 9.243330000000000268e+00 3.504030000000000200e+00 7.382159999999999833e+00 5.161299999999999777e+00 1.484999999999999931e-01 5.107199999999999740e+00 4.481729999999999769e+00 1.526799999999999935e+00 1.166523300000000063e+01 8.932980000000000587e+00 2.431039999999999868e+00 9.439249999999999474e+00 8.218750000000000000e+00 4.072999999999999954e-01 1.184510000000000041e+01 1.111069999999999958e+01 4.444440000000000168e+00 4.987599999999999589e+00 9.864779999999999660e+00 4.360249999999999737e+00 4.573999999999999733e-01 5.183200000000000252e+00 6.941250000000000142e+00 4.782099999999999795e+00 4.163299999999999557e+00 1.096439999999999948e+01 9.984719999999999374e+00 7.891099999999999781e+00 9.022199999999999775e+00 3.135740000000000194e+00 7.126000000000000334e+00 1.172865700000000011e+01 9.577709999999999724e+00 2.439999999999999947e-01 2.307049999999999823e+00 3.342820000000000125e+00 4.503000000000000114e+00 3.921460000000000168e+00 1.012749999999999950e+01 1.012209999999999965e+01 2.892500000000000071e+00 2.836599999999999788e+00 7.956620000000000026e+00 2.049879999999999924e+00 2.357909999999999950e+00 1.017089999999999961e+01 9.229530000000000456e+00 2.287920000000000176e+00 1.136170000000000080e+01 1.797800000000000065e+00 4.667000000000000037e-01 9.259760000000000213e-01 1.090775999999999968e+01 4.839260000000000339e+00 2.628400000000000070e+00 8.047430000000000305e+00 4.432870000000000310e+00 1.068280000000000030e+01 9.483120000000000438e-01 2.577770000000000117e+00 1.430600000000000094e+00 5.901239999999999597e+00 2.181259999999999977e+00 9.299499999999999433e-02 1.583199999999999941e+00 4.785709999999999908e+00 1.032508999999999943e+01 7.768500000000000405e+00 2.404100000000000126e+00 4.989740000000000286e+00 4.118999999999999773e+00 1.023790999999999940e+01 2.176600000000000090e+00 5.997779999999999667e+00 6.528179999999999872e+00 1.036200000000000010e+00 2.217999999999999972e-01 4.774409999999999599e+00 5.589030000000000387e-01 9.295600000000000307e+00 1.173629999999999995e+01 7.565540000000000376e+00 4.283430000000000071e+00 2.051219999999999821e+00 9.517070000000000363e+00 8.587210000000000676e+00 7.225670000000000037e+00 1.098330000000000028e+00 9.750569999999999737e+00 4.052800000000000402e+00 4.477999999999999758e+00 4.313900000000000290e+00 2.235000000000000042e-01 8.864119999999999777e-01 1.120979999999999954e+01 1.166024200000000022e+01 1.097120000000000095e+00 6.160899999999999821e+00 4.328499999999999709e-02 7.580370000000000275e+00 1.813600000000000101e+00 1.152131900000000009e+01 4.940229999999999677e+00 3.314099999999999824e+00 4.406999999999999806e-01 7.307719999999999771e+00 1.025164000000000009e+01 9.805339999999999279e+00 1.014380000000000059e+01 5.662230000000000096e+00 4.694700000000000095e+00 6.662200000000000344e+00 1.005123000000000033e+01 3.544800000000000034e-02 1.049419999999999931e+01 8.666639999999999233e+00 9.667199999999999349e+00 6.165070000000000050e+00 5.109709999999999752e+00 9.023699999999999832e+00 3.877999999999999781e-01 3.555210000000000203e+00 7.324259999999999771e+00 9.288480000000000070e-01 4.335010000000000252e-01 6.998709999999999987e+00 9.844400000000000261e+00 1.082199999999999918e+01 1.539530000000000065e+00 1.435200000000000031e+00 3.848180000000000156e+00 1.003619999999999912e+01 6.375820000000000043e+00 9.058400000000000674e+00 7.678560000000000052e+00 9.295700000000000074e+00 9.753349999999999298e+00 4.937529999999999752e+00 4.793999999999999928e-01 4.649999999999999967e-02 5.017000000000000348e+00 8.367919999999999803e+00 4.687400000000000233e+00 2.860970000000000013e+00 5.304299999999999571e+00 3.253989999999999938e+00 4.315680000000000072e-01 3.068900000000000183e+00 2.448020000000000085e+00 9.443500000000000227e+00 4.316399999999999793e+00 3.329299999999999926e+00 5.053499999999999659e+00 7.702189999999999870e+00 5.914769999999999861e+00 6.749590000000000423e+00 9.217209999999999681e+00 8.934120000000000061e+00 9.350569999999999382e+00 2.364879999999999871e+00 1.101013000000000019e+01 9.348900000000000432e+00 3.755700000000000038e+00 6.930659999999999599e+00 6.816959999999999908e+00 7.029219999999999580e+00 2.732019999999999893e+00 6.975410000000000110e+00 1.117860600000000026e+01 1.146349999999999980e+01 2.031000000000000139e+00 1.040878999999999976e+01 1.206540000000000035e+01 7.182500000000000107e+00 1.404770000000000074e+00 6.324999999999999512e-01 1.806570000000000009e+00 8.149689999999999657e+00 7.684779999999999944e+00 1.197978099999999912e+01 9.604639999999999844e+00 2.566460000000000186e+00 9.463530000000000442e+00 7.352699999999999514e-02 8.114699999999999136e+00 1.171870000000000012e+01 2.044700000000000184e+00 9.841689999999999605e-01 1.654209999999999958e+00 4.106460000000000221e+00 5.276579999999999604e-01 1.163122599999999984e+01 3.002089999999999925e+00 6.065599999999999881e+00 7.887900000000000134e+00 4.910569999999999879e+00 7.623599999999999710e+00 9.745969999999999800e+00 8.701790000000000802e+00 9.296200000000000685e+00 5.491799999999999571e+00 8.575720000000000454e+00 1.125917899999999960e+01 3.824190000000000089e-01 6.202840000000000131e+00 9.900399999999999479e-02 4.819160000000000110e+00 3.062759999999999927e+00 4.696869999999999656e+00 7.520489999999999675e+00 8.531420000000000670e+00 1.037129999999999974e+01 2.093080000000000052e+00 2.590800000000000214e+00 1.622589999999999977e+00 1.011170000000000080e+01 4.925399999999999778e+00 6.319639999999999702e+00 3.338319999999999954e+00 3.934000000000000274e-01 3.495490000000000208e+00 1.743940000000000046e+00 6.956220000000000070e+00 4.533249999999999780e+00 4.449379999999999669e+00 1.117089999999999961e+01 1.004979999999999940e+01 3.229000000000000203e-01 8.644909999999999428e+00 2.432850000000000179e+00 7.947119999999999962e+00 8.420379999999999754e+00 1.089569999999999972e+01 8.531340000000000146e+00 7.999130000000000074e+00 8.029270000000000351e+00 1.101580000000000048e+01 8.757870000000000488e+00 6.400260000000000282e+00 9.455780000000000740e+00 4.767970000000000041e+00 1.207419999999999938e+00 9.958360000000000767e+00 7.963440000000000518e-01 1.161689999999999934e+01 2.030949999999999811e+00 4.802410000000000068e+00 4.145660000000000345e+00 1.168007099999999987e+01 2.285740000000000105e+00 5.360730000000000217e+00 1.192769999999999975e+01 8.726739999999999498e+00 4.040879999999999583e+00 3.428500000000000103e+00 9.064590000000000813e+00 6.044360000000000177e+00 7.683530000000000193e+00 6.389059999999999739e+00 7.485669999999999824e+00 9.375619999999999621e+00 1.132540000000000013e+01 8.788280000000000314e+00 9.000880000000000436e+00 8.949510000000000076e+00 2.101960000000000051e+00 1.678670000000000107e+00 7.820719999999999894e-01 3.727660000000000196e+00 9.755200000000000315e+00 8.894270000000000564e+00 5.157930000000000348e+00 3.525030000000000108e+00 2.684899999999999842e+00 6.798339999999999606e+00 1.237489999999999979e+00 4.434000000000000163e-01 7.156740000000000101e+00 7.105419999999999625e+00 4.484499999999999709e+00 2.639759999999999884e+00 1.207985099999999967e+01 8.523970000000000269e+00 7.927419999999999689e+00 2.782259999999999955e+00 1.051909999999999989e+01 2.551899999999999835e+00 4.008610000000000007e+00 1.113509999999999955e+01 7.292819999999999858e+00 5.124609999999999665e+00 2.904230000000000089e+00 6.094490000000000407e+00 7.158459999999999823e+00 2.333289999999999864e+00 1.749349999999999961e+00 1.190706600000000037e+01 2.386600000000000055e+00 9.765109999999999957e+00 1.057022000000000084e+01 7.262739999999999974e+00 4.091440000000000410e+00 1.160511600000000065e+01 1.035410000000000075e+01 2.149319999999999897e+00 5.857529999999999681e+00 2.837159999999999904e+00 9.533509999999999707e+00 1.091840000000000011e+01 1.070778999999999925e+01 1.009249999999999936e+01 4.588499999999999801e-01 7.513999999999999568e-01 5.312079999999999913e+00 3.330499999999999794e+00 6.550720000000000098e+00 3.161109999999999864e+00 5.994909999999999961e+00 2.069000000000000006e-01 6.010550000000000281e+00 1.352999999999999980e+00 2.807319999999999816e+00 7.086979999999999613e+00 1.121813900000000075e+01 2.901400000000000201e+00 8.468230000000000146e+00 6.780859999999999665e+00 6.723390000000000200e+00 3.369499999999999940e+00 5.500759999999999650e+00 9.044990000000000308e+00 3.386319999999999997e+00 7.657910000000000217e+00 2.487299999999999844e+00 7.624390000000000001e+00 3.016430000000000167e+00 2.024140000000000050e+00 8.496909999999999741e+00 4.713860000000000383e+00 4.956920000000000215e+00 1.085769999999999946e+01 4.692260000000000097e+00 4.906010000000000204e+00 1.147600000000000087e+01 2.950690000000000257e-01 1.053350000000000009e+01 6.508770000000000167e+00 3.020490000000000119e+00 8.477359999999999118e+00 6.680130000000000123e+00 1.152966499999999961e+01 1.062860000000000049e+01 5.804179999999999673e+00 5.270970000000000155e+00 4.864230000000000054e+00 1.084660000000000046e+01 4.749719999999999942e+00 9.137869999999999493e+00 2.977199999999999847e+00 1.184580000000000055e+01 4.281369999999999898e+00 1.156409999999999938e+00 4.462340000000000195e+00 9.018259999999999721e+00 7.140900000000000025e-02 1.009869999999999912e+01 1.113310000000000066e+01 2.666029999999999789e-01 6.689470000000000027e+00 8.414170000000000371e+00 3.985939999999999817e+00 1.169599999999999973e+01 6.227899999999999991e+00 1.145040000000000013e+01 8.136570000000000746e+00 3.551000000000000267e-01 4.531839999999999868e+00 5.379749999999999588e+00 7.020369999999999777e+00 3.827799999999999869e+00 9.586240000000000094e+00 9.094849999999999879e-01 2.405110000000000081e+00 8.099930000000000518e+00 4.614700000000000024e+00 8.461140000000000327e+00 6.922430000000000305e+00 2.440570000000000128e+00 1.502140000000000031e+00 6.288389999999999702e+00 1.072480000000000011e+01 1.652500000000000080e+00 1.177421200000000034e+01 1.040700000000000003e+01 5.674890000000000434e+00 5.387710000000000221e+00 9.356199999999999406e+00 6.846930000000000405e+00 5.305749999999999744e+00 6.892579999999999707e+00 7.299319999999999808e+00 9.883969999999999700e-01 9.045439999999999259e+00 6.160400000000000320e-01 6.158710000000000129e+00 7.492799999999999461e-01 4.440109999999999779e+00 5.645340000000000025e+00 3.047289999999999832e+00 6.383569999999999744e+00 1.122621400000000058e+01 6.720019999999999882e+00 6.250879999999999770e-01 2.156390000000000029e+00 6.897210000000000285e+00 1.045819999999999972e+01 2.690080000000000027e+00 1.079570000000000007e+01 7.698129999999999917e+00 1.115544900000000084e+01 6.436410000000000187e-01 2.579639999999999933e+00 9.808650000000000091e+00 6.916380000000000194e+00 2.797900000000000040e-02 4.444169999999999732e+00 1.128919999999999924e+01 9.705550000000000566e+00 6.784849999999999604e+00 4.452420000000000044e+00 4.744080000000000297e+00 7.530210000000000292e+00 3.233779999999999988e-01 2.287409999999999943e+00 6.051989999999999981e+00 7.213659999999999961e+00 2.517319999999999780e+00 3.706269999999999953e+00 3.204600000000000115e+00 1.094459999999999944e+01 4.606119999999999770e+00 1.157410000000000050e+00 4.711739999999999817e+00 1.867699999999999916e+00 9.062350000000000128e-01 8.419359999999999289e+00 7.222190000000000332e+00 1.044152000000000058e+01 3.132200000000000095e+00 1.183890000000000065e+01 1.753210000000000046e-01 9.625719999999999388e+00 5.040759999999999685e-01 4.092270000000000074e+00 7.583689999999999820e+00 9.376529999999999587e-01 4.853390000000000093e+00 1.029979999999999940e+01 8.638239999999999696e+00 2.989679999999999893e+00 8.225270000000000081e+00 9.603239999999999554e-01 2.094800000000000217e+00 6.812409999999999854e+00 7.246089999999999698e+00 8.249560000000000670e+00 1.156719999999999970e+01 2.246799999999999908e+00 8.831559999999999633e+00 5.683779999999999610e+00 5.263370000000000104e+00 1.012599999999999945e+00 6.060050000000000381e+00 1.202309999999999990e+00 7.056129999999999569e+00 7.799739999999999895e+00 8.712509999999999977e+00 3.172099999999999920e+00 9.705769999999999342e+00 4.209060000000000024e+00 3.097690000000000055e+00 1.178250000000000064e+01 2.306039999999999868e+00 7.720299999999999940e-01 1.132409999999999961e+01 1.195720000000000027e+01 2.416160000000000085e+00 1.100089999999999968e+01 6.585110000000000241e+00 2.375900000000000123e+00 9.092370000000000729e+00 2.561420000000000030e+00 4.505300000000000082e+00 5.027890000000000192e+00 9.566499999999999559e+00 2.978439999999999976e+00 7.700730000000000075e+00 3.039639999999999898e+00 6.387310000000000265e+00 8.772220000000000795e+00 6.142999999999999572e-01 6.575219999999999843e+00 4.728909999999999947e+00 1.692129999999999912e+00 4.938399999999999679e+00 6.966380000000000017e+00 5.135229999999999961e+00 1.116319999999999979e+01 9.310619999999999452e-01 8.088660000000000849e+00 6.660449999999999982e+00 9.334300000000000708e+00 4.648550000000000182e+00 7.077069999999999972e+00 6.804280000000000328e+00 3.359890000000000043e+00 4.265859999999999985e+00 6.408979999999999677e+00 9.401070000000000704e+00 9.210259999999999891e+00 1.110820000000000007e+01 6.580869999999999997e+00 1.056080000000000041e+01 8.825649999999999551e+00 9.522000000000000464e-01 1.074555999999999933e+01 9.735649999999999693e+00 6.876800000000000246e+00 3.110439999999999872e-01 3.593350000000000044e+00 7.448249999999999815e+00 6.541179999999999772e+00 1.114879999999999960e+01 1.006329999999999991e+01 9.152649999999999508e+00 8.449079999999999924e-01 2.104340000000000099e+00 1.063189999999999991e+01 2.754100000000000215e+00 9.815369999999999706e+00 1.088898999999999972e+01 3.874730000000000008e+00 3.819970000000000088e+00 4.813019999999999854e+00 4.798350000000000115e+00 7.835180000000000256e+00 4.269929999999999559e+00 8.561310000000000642e+00 4.786349999999999660e+00 9.520499999999999519e-01 8.660330000000000084e+00 8.833099999999999952e+00 8.788010000000000543e-01 7.479110000000000369e+00 9.373300000000000409e+00 6.892030000000000101e+00 1.365390000000000104e+00 3.877510000000000012e+00 1.328300000000000036e+00 4.827000000000000179e-01 3.590000000000000135e-02 4.970950000000000091e-01 9.060119999999999507e+00 2.314369999999999816e+00 5.029000000000000137e-01 1.026699999999999946e+00 7.821469999999999700e+00 2.496809999999999974e+00 3.505980000000000096e+00 6.033689999999999998e+00 4.994180000000000064e+00 3.160000000000000309e-02 4.459520000000000373e+00 7.082160000000000011e+00 7.808540000000000481e-01 1.220490000000000047e-01 4.208099999999999952e+00 2.049399999999999888e+00 2.266579999999999817e+00 8.767129999999999868e+00 1.035679999999999978e+01 2.375599999999999934e+00 6.687820000000000320e+00 9.617889999999999162e+00 4.821880000000000166e+00 1.102968000000000082e+01 8.663499999999999535e-01 1.927240000000000064e+00 2.691749999999999865e+00 9.185309999999999420e+00 1.078839999999999932e+01 2.432469999999999910e+00 5.385790000000000077e+00 1.183200000000000074e+01 4.480330000000000368e+00 4.774780000000000135e-01 6.313189999999999635e+00 4.841179999999999595e+00 1.520799999999999930e+00 1.187819999999999965e+01 6.332699999999999996e+00 3.085999999999999854e+00 1.501730000000000009e+00 1.064780000000000015e+01 3.064000000000000057e-01 2.539310000000000178e-01 8.269050000000000011e+00 1.298999999999999877e-01 9.928490000000000038e+00 3.010759999999999881e+00 4.900290000000000035e+00 9.576460000000000861e+00 7.002089999999999925e+00 1.159669999999999979e+00 4.208429999999999893e+00 5.191200000000000259e+00 9.741789999999999949e+00 6.745759999999999756e+00 8.644450000000000855e+00 5.553340000000000387e+00 1.519479999999999942e+00 1.045350000000000001e+01 1.030410000000000004e+01 8.658149999999999125e+00 1.068979999999999997e+01 9.420289999999999608e+00 8.704019999999999868e+00 5.685299999999999798e+00 4.002860000000000085e+00 9.792180000000000106e+00 4.940010000000000012e+00 6.188920000000000421e+00 7.356939999999999813e+00 1.044369999999999976e+01 2.042100000000000026e+00 2.017380000000000173e+00 5.043899999999999828e+00 1.071822000000000052e+01 6.811589999999999812e+00 6.340370000000000061e+00 2.508379999999999832e+00 9.654619999999999536e+00 2.895970000000000155e+00 3.671539999999999804e+00 3.918239999999999945e+00 1.143399999999999972e+00 1.219819999999999904e+00 9.973599999999999355e+00 8.776540000000000674e+00 5.216269999999999740e+00 9.628489999999999327e+00 1.113100000000000023e+01 1.202309999999999945e+01 1.029979999999999940e+01 6.786649999999999849e+00 1.044801999999999964e+01 1.050820000000000043e+01 4.248969999999999914e+00 8.587000000000000188e-01 8.194860000000000255e+00 9.992449999999999832e+00 6.016029999999999767e+00 9.494540000000000646e+00 1.231349999999999945e+00 3.625840000000000174e+00 1.592419999999999947e+00 2.657659999999999911e+00 9.124090000000000700e+00 2.664940000000000087e+00 8.402070000000000149e+00 3.687530000000000197e+00 7.395950000000000024e+00 1.045606000000000080e+01 8.308960000000000790e+00 4.910309999999999953e+00 9.365230000000000388e+00 5.429160000000000430e+00 1.175999999999999979e+01 2.847729999999999984e-01 8.601409999999999556e+00 1.069341000000000008e+01 5.275299999999999656e+00 7.288330000000000197e+00 6.937149999999999928e+00 5.973000000000000531e-01 2.565459999999999852e+00 3.852059999999999818e+00 6.967139999999999667e+00 1.090119999999999933e+01 1.040390000000000015e+01 8.645389999999999464e-01 2.518720000000000070e+00 7.884389999999999787e+00 1.992339999999999944e-01 1.194069999999999965e+01 8.602650000000000574e+00 4.989620000000000388e+00