-8.071866733824460243e+04
-8.072539360016479623e+04
-8.071755340351910854e+04
-8.071692849637579639e+04
-8.072195379048232280e+04
-8.072447604606630921e+04
-8.071335794137652556e+04
-8.073300257990244427e+04
-8.072132082493543567e+04
-8.072133902066365408e+04
-8.071614886315951298e+04
-8.072795771248058008e+04
-8.073748054604927893e+04
-8.072447050445874629e+04
-8.072972545931793866e+04
-8.071978410048782825e+04
-8.073157127372156538e+04
-8.072715663205370947e+04
-8.072174247914418811e+04
-8.072248744518998137e+04
-8.072018301123307901e+04
-8.072513421388421557e+04
-8.070726896317680075e+04
-8.072617890366281790e+04
-8.072945401626206876e+04
-8.072632904941095330e+04
-8.071845177995967970e+04
-8.072478352607568377e+04
-8.072973351984749024e+04
-8.072005048029955651e+04
-8.072550151030231791e+04
-8.072479522820196871e+04
-8.071265529745248205e+04
-8.072401018896466121e+04
-8.072787757395805966e+04
-8.072322212229084107e+04
-8.072697962335217744e+04
-8.072517328588351666e+04
-8.072651901983076823e+04
-8.072286077440841473e+04
-8.072662226422755339e+04
-8.072058466541887901e+04
-8.071266972052553319e+04
-8.072944675576323061e+04
-8.072061647815602191e+04
