-1.086652158351069541e+00 4.325945704030266015e+00 8.755018364384303808e-01 6.865643050135398218e-01 -1.959837944870366222e+00 3.328290746301823866e+00 4.043213293087207560e+00 2.820784765109622505e+00 -4.190634704114411413e+00 -1.998193665000957742e+00 -4.933505144573178680e-01 3.473675843456965229e+00 -2.303170748113600563e+00 9.574968941328061423e-01 1.574489198733575845e+00 6.076674268846129490e-01 8.240520010456672262e-01 4.283993010279705249e-01 -2.921342160721601910e+00 2.068161615333295789e+00 3.598292081779093987e+00 -1.215757543163881182e+00 -4.535815102242070296e+00 5.649022644679264626e-01 6.684102583116976470e-01 -1.335877950126554081e+00 3.075404731763374255e-01 -6.093910945864193796e-01 -2.590166562671121220e+00 -8.228816347899060579e-01 1.290827591031219912e+00 2.264879819788028659e+00 9.866233815927465400e-01 1.483605836675917278e+00 4.488359733050868439e-01 1.734617516854854991e+00 -4.725276624534544695e-02 2.547047102209522684e+00 9.058621964074655253e+00 -3.433744036958223944e+00 -3.721579573877633607e-01 -6.088838673128328161e+00 -1.461902124656184299e+00 1.101336243939609050e+00 5.100847978761386958e-01 2.080481828479948447e+00 -2.581309625768998917e+00 1.576038031405962769e+00 1.501989225798703753e+00 3.432655946010425563e+00 1.800310236497210781e+00 -1.074893474181258135e+00 4.141415558008771036e+00 -2.235644831765713381e+00 -2.393126456073985941e-01 2.462286051505595541e+00 -2.656661466566107688e+00 7.434962470199540929e-01 -1.448117925248480597e+00 -6.585300222667963554e-01 -2.282759786870222296e+00 1.020301750465691493e+00 3.013654542034427841e+00 -1.258277936539380359e+00 1.756226098049756601e+00 -3.063606452601605579e+00 3.049503436375548548e-01 -4.733876965319960384e+00 -4.979068181681252092e+00 -9.141429490435155625e-01 8.076087665287624562e-01 -3.666463345073808000e+00 2.818829698104172721e+00 -3.185831564786084869e+00 8.198415621607056947e-01 -3.260828079096933063e+00 4.904287125833130534e-01 -2.250764976486452351e+00 -2.566092807561404232e+00 5.850314327815342441e-01 3.648172515672479133e+00 -2.044587682719448407e-01 1.276733830777308398e+00 -5.253854340537194023e-01 2.018058009667062613e+00 2.173712607917901440e+00 3.658815855198729317e+00 -6.230189709089951622e-01 -3.908477706106413319e+00 -2.166770628808597277e+00 1.195242709344200849e+00 -2.000837273489915802e+00 -2.743385811806281271e+00 3.239399475138197815e+00 -1.661965848820927905e+00 -2.040239432693650379e+00 -1.344749285207570200e+00 1.732135373657772481e+00 2.406869517827708638e+00 -1.707876499105140944e+00 1.478704285204073710e+00 -3.635726832681184462e+00 2.432729161340878132e+00 1.895555732538885652e+00 2.685435198643160715e-01 -5.668522921107635781e+00 -3.006543898543801774e+00 2.493387660577301546e+00 2.186330040614567594e+00 5.267372687856045843e+00 5.795961202492865283e-01 -1.069619626940885970e+00 4.679048185873327381e-02 3.454876449808295114e+00 -8.560576100636073660e-01 -1.974125052097988720e+00 5.334730968263959316e-02 -2.706523388515202355e-01 2.534611189411048127e+00 -4.633637358084983782e-01 -3.129728546507389186e+00 1.285168592505450125e+00 2.063958375537780832e+00 -3.940963597234582672e+00 3.646228247301198877e+00 4.883872565045028757e-01 4.107593721567567968e+00 2.865227315367386840e-01 2.926226742911178569e+00 9.142524780472401913e-01 -3.934749754600742611e-01 -2.279650294449929060e+00 -3.507569670792635375e+00 -5.150456389917821731e+00 8.094805297849008152e-01 -4.864780065611744142e+00 -1.925930233576476969e+00 -7.285761341416980841e-01 3.714543492384847490e+00 -9.711813347296056609e-01 3.067387517223139959e+00 2.484291096840739677e+00 -2.927760148963322706e+00 4.916954952155923486e+00 2.942504912591484167e+00 -5.587825242175689100e-01 -2.620141514244421543e+00 6.912570828914292864e-01 -5.354701756609740571e+00 -1.875072780401041195e+00 2.006236590574930201e+00 3.843146483598415819e-01 1.403398210047018813e+00 -1.481709390827390393e+00 -4.348649575262413691e+00 -7.503201610623324136e+00 2.867336134354591337e+00 2.420087046051823398e-01 2.189613339622930865e-01 1.000570588954350360e+00 -1.735127623764219917e+00 1.554593486606310693e+00 4.375683698796742904e-01 -5.011625549483212927e-01 -1.316363789739963264e-01 -1.737726495054473796e-01 -1.040888060959163974e+00 2.433867131694129604e+00 3.912257228065922465e+00 -1.400161190899384123e-01 -5.487292529156097665e+00 -2.127474399063863597e+00 -9.336653369609027031e-01 2.986599335452433834e+00 -1.275111464548430495e+00 -3.436652469094685358e+00 -8.665572763333283746e+00 -5.936127474019835537e-01 -4.023022418292628188e+00 2.971528041695797651e+00 -1.607366926015914244e+00 8.149348684821147160e-01 -3.125489311264640691e+00 3.872460147383970597e+00 -3.166272152980114996e+00 -5.579935554362796424e+00 -2.235502392638804015e-01 -5.251474527254389457e+00 3.323577913817618024e-01 -3.338711428275900950e+00 -5.724470130521878808e+00 -1.010569609975122018e+00 -1.322540094264544663e+00 9.390008906822463475e-01 1.746788606005826416e+00 3.115505202643437332e+00 3.601611890455365117e-01 1.804662600288406971e-01 -1.128488638229133700e+00 -1.631765668592081386e+00 1.438927259128436775e+00 2.418610204273903275e+00 6.238006891787702735e+00 5.401240270337839267e-01 6.787198686200263120e-01 2.015219511542369446e+00 9.931863800647500184e-02 1.940437427252898195e-01 5.216552258569191913e+00 1.513052169395560753e+00 2.319271511661112672e+00 9.514517158802890950e-01 4.206963267420844588e+00 7.906657095159879134e-01 2.579230117360256092e+00 -6.775546445710127763e-01 -1.944054969699857915e+00 -9.141558045603846716e-02 1.052593266178800002e+00 2.439392432844460945e+00 -1.081468813949455932e+00 -3.819924277926106670e-01 -2.502567528063175395e+00 2.122381557501008320e+00 -1.776263220862581704e+00 -1.999402597807326210e+00 3.795833039313448176e-01 3.432890944858792093e+00 -2.610000054096739852e+00 1.162704367707206199e+00 3.122106767666048110e+00 -1.615291066614016335e+00 -2.024598896650051216e+00 -8.624159487070549579e-01 -3.548255839021254854e+00 3.331471201175234764e+00 6.673432504115638375e-01 -3.976237078640642686e+00 2.082248690718434769e+00 -8.255005606864753709e-01 -3.718931851623277662e+00 1.860645805149883092e+00 1.840560345593630076e-01 5.212536709319965933e-01 2.276408133095546571e+00 -1.730712525050702791e-02 -1.859977832493365568e+00 1.362229702825472399e+00 -1.383621797116298513e+00 -2.749208846727300593e+00 -1.712498828750588009e+00 1.637522883266731011e+00 -2.238252444807438124e+00 -2.212766639724820905e+00 3.340228379266452774e-01 -1.328873236094929133e+00 1.565194660037229957e+00 -1.104959442813991277e+00 -2.567497658444857667e+00 1.958968397709341280e+00 -4.890813515712983950e+00 -3.493334499853164576e+00 3.452104800371321502e+00 2.398659984755113328e+00 2.439000082469616193e-01 7.824782879324071461e-01 -2.616001009371227148e+00 -3.332720757414909252e-01 4.888048036924107498e-01 -3.082922638028413043e-01 -7.003952985026472566e-01 4.591233692802656030e+00 2.804845466853985503e+00 -2.723529694670972390e+00 -3.184513617196666591e+00 -5.751794788737448760e-01 8.799782302563796677e+00 -3.117388792975095413e+00 -3.672780546063274976e+00 -1.445074767295231544e+00 4.143850392903775770e+00 -5.306027170198674092e+00 1.116532493320213093e-01 2.066396809977508298e+00 -2.053641051919330884e+00 -2.126862476460895213e+00 -2.301174029233494345e+00 3.877357585090415171e-01 7.044149100952041387e+00 4.969002311972761099e+00 5.329120820702292427e+00 2.176109904703647402e+00 1.253911688789965395e-01 4.701689322183154052e-01 -4.691933013320870316e+00 -2.395231675516466652e+00 3.438295404150553569e+00 6.295628917939650293e+00 -1.199591987811348570e+00 -2.501189930875484801e+00 3.823318134379544153e-01 -1.067566858007231057e+00 5.787430281498543438e-01 -5.134143767452307161e-01 -1.636703215511158049e+00 1.320230729214182941e-01 -1.531308031791005775e-01 -4.280578584999277653e-02 4.357158384767721770e+00 -4.072020963728795184e-01 -1.331829490754143031e+00 9.622138403824094244e-01 -1.106744816996769076e+00 -2.546192467448066488e+00 -2.505542294666680991e+00 -1.898303213604146000e+00 2.347725912699138162e-01 -8.344315453657636938e-01 -1.200489817109485324e+00 -1.680336382426845132e+00 -1.278311974028156994e+00 1.810102026586052570e+00 6.039897206187060386e-01 9.065283692916211722e-01 -7.306726118327078190e-01 -3.954147186894162669e+00 -1.117530081429253669e-01 -3.694973796165382240e-01 -6.967266425206161351e+00 1.188636516335517257e+00 3.655579350271769279e-01 -3.420316706698805831e+00 1.406470164358054609e+00 2.712009094673576204e+00 -2.621393641587469681e+00 2.147696127098928986e+00 1.266674645937589716e+00 -5.311179661359802795e-01 -1.064389488457869071e+00 1.434768756531626277e+00 5.443951439583676055e-02 6.561851759898759129e-01 -7.322187191355186364e+00 4.141076686584102440e+00 4.768267015606777015e+00 3.282064878743980452e-01 2.376391658434489962e+00 -2.920949810346758380e+00 -1.165229705440968599e+00 1.256269904804429904e+00 4.942271064415868054e+00 5.049385287851754001e+00 4.277462407710212466e-01 -7.038390343615368305e-01 -9.414943467341733152e-01 2.760661569595627807e+00 -1.869107306353112508e+00 5.826341359957879495e-01 -1.713233650094824645e+00 -5.596695548815355803e-01 1.023237436297914776e-01 -1.480114792514949595e+00 -3.559895738215195671e+00 8.794587645307336832e-01 3.075542028683535545e+00 -1.812636620291960821e+00 -3.000400504142404778e-01 1.465537150606085914e+00 4.073414501757403272e+00 3.807237939659022796e+00 -4.225113714577963364e+00 2.612767075547640871e+00 1.793426878544829850e-01 8.969093573494997251e-01 -4.246193162698533641e+00 6.545340134032110457e-01 -1.855711343554854897e+00 -2.682090193153825908e+00 -7.269393697339265881e-01 3.005779252400428980e-01 -9.009429043223425859e-01 -1.410980393896403284e-01 -6.357984345402792670e+00 -9.685001881313901606e-01 -3.247470168628607379e+00 -1.210426617428610463e+00 -3.229580945574268114e+00 1.346163906283843748e+00 -1.993163558360423915e+00 -7.553172547355468502e+00 1.970611896448005995e-01 -1.967868529148144141e+00 -2.131218439796815078e-01 -7.211543871428400809e-01 5.229395434142079857e+00 -4.562083551191676856e-01 -8.224414618923087117e-01 5.047492441547950515e-01 -7.385371028325372622e-01 2.182738723422020577e+00 -1.135042894949666259e+00 -1.404768608145262887e-01 4.261852724907098988e+00 1.142573142510899364e+00 -1.615037041600682954e+00 -1.832492223206594772e+00 1.158148372528803760e+00 -5.791209803458052807e-01 6.682446278323563860e+00 1.780798132993318683e+00 -5.040467158689334148e+00 -1.645892338969177748e+00 6.316421945144377048e+00 7.475483059370885419e-01 -5.451138187734168028e+00 -1.723667701806445764e-03 -3.395137891359023108e+00 -1.179860826300007437e+00 -8.976061263638039911e-01 7.498083058026731029e-01 -4.693715816400274576e+00 2.824717010609537615e-01 9.491665192016410790e-01 2.037169021044639372e+00 4.555156998702615812e-01 -5.121616323373724633e+00 1.618454552205159658e+00 -3.766814538195208062e+00 -5.440958675256554189e-01 1.004659671760067763e+00 -1.235819348569094922e+00 -1.915178907708526834e-01 -8.224687155880712197e-01 9.325597625101617050e-01 -1.458386397902828036e-01 1.704476472003606302e+00 -3.637705039616998537e+00 -6.372700826893842319e-01 5.045296205046036597e+00 -2.057134667183672105e-01 -1.234427867423185526e-01 1.877631542478662707e+00 -8.626581466448685065e-01 -1.470377509817632600e+00 4.332818263348476862e-01 -1.532293792824527046e+00 1.397753609700142619e+00 1.231306033706697889e+00 -6.654226361913231358e-01 1.938112635582293519e+00 -1.956128356922624212e+00 1.771024340628093885e+00 2.535744531778226563e+00 -2.487055547188266935e+00 -1.357764724706502779e+00 -3.894976842290503782e+00 -2.567241576548825455e-01 1.535005792663228341e+00 2.771729141178557398e+00 5.932516616441646740e+00 -1.366086872106871519e+00 -5.035578976955036090e+00 -3.131588996908682532e+00 -1.673349151898162024e+00 4.064740627415496910e+00 -3.985140809624168501e+00 4.472504766985892388e+00 3.040568337930861897e+00 1.768833246332927267e+00 -8.989307588219940248e-01 1.318310114993942461e+00 -5.203017970409423931e+00 3.719190504622683413e+00 -1.961041735469987168e+00 -1.047674745424689302e+00 2.188426518305576884e+00 -1.889384570221052106e+00 2.896317097363573234e-01 2.177564634992552595e+00 -5.474341881462185117e-02 -1.241585819215890174e+00 -8.798197474444174881e-01 4.846946378390278865e-01 8.724926170497159239e-01 -6.780215569436977008e-01 -2.705494432945001027e+00 4.025345153080534644e+00 3.506471295431341506e+00 -5.425850871832009481e-02 1.223846234377907294e+00 3.073440408785778621e-01 4.058235735879740957e+00 1.490021768034938576e+00 3.008446000819751109e+00 -4.566486308608999956e+00 -3.425857948690054666e+00 -4.174165244343094550e+00 -1.102345144903494750e-01 -1.272042081340768460e+00 2.336558068084629181e+00 6.558863623557710021e+00 3.871319091706670434e+00 1.234721487428475317e+00 3.100564006717516197e+00 1.384061455793221151e+00 -1.748754471645446396e+00 1.285502321723371644e+00 -8.854103546204437070e-01 1.646403474319892535e+00 1.135878503546156493e+00 -2.769222315389086586e-01 -4.708129421913888280e+00 -1.761014520973151809e+00 4.807001202153994512e+00 -2.104094327644402629e+00 -4.913666510940812304e-01 4.123859549951678916e-01 -2.626948767536937623e+00 -3.556778532484780708e+00 -2.391779197906105825e+00 6.221910756226264327e-01 -7.333712419338654642e-02 -2.224357687954659824e+00 -7.460020443680753788e-01 -2.178799278832659336e-01 2.648061640001367234e+00 4.924979365785604468e-01 5.263917639142311478e-01 1.166715288970359587e+00 1.783439684599577690e+00 -2.896315554701549111e+00 -1.074083062397831245e+00 -1.385468363559373417e+00 9.474089129353002736e-01 1.219351431459801516e+00 -1.320482697344816936e-01 -1.462012682101258676e+00 1.222537028539959936e+00 -5.815527299167607550e-02 -2.561349636057387968e+00 2.903706448459921763e-01 3.867813649366809436e-02 -1.436607609664579677e+00 -2.410744684832724971e+00 2.405112940002717692e-01 1.149829310452483710e+00 1.994968472928842385e+00 -1.121923068653756461e+00 1.627296062487039174e+00 4.486796502199587588e-01 -2.457666292963522556e-02 2.689955198374329726e-01 3.560206841723427551e-02 1.564927779507027661e-02 -2.193137808127758159e+00 1.009081969563031755e+00 -8.104601201703248714e-01 -1.875292866849839646e+00 5.851383906818848679e+00 -7.904445946258396860e-02 2.552169254350840077e+00 -3.074809778442672670e+00 -6.124844404775251938e+00 -8.096147413810140803e-01 -2.737601857656543736e+00 -3.690464080847708495e-01 9.115841869658934948e-01 -6.903068030844667913e-01 -6.112834266695481578e-01 2.281782253367497237e-01 -6.755265582297464988e-02 -2.824106116447918424e+00 -5.970793660808999981e+00 1.087382351709233586e+00 -1.407519174534571649e+00 -2.436711800466919708e-01 -3.069461369204460333e+00 1.935223743831473442e+00 2.291641920585408165e+00 1.921682256582257775e+00 -2.927958123923106282e+00 1.500434222478219670e-01 -5.196316132355234707e+00 3.736934203226064399e-01 -3.306848258384870398e+00 -6.233863301590461425e+00 -4.267440760979751779e+00 -4.708920293311674499e+00 8.806219316970482769e-01 -1.006375626151752911e+00 1.460032418282745104e+00 2.403812475916241365e+00 -1.936955639064076085e+00 4.000680044194838914e+00 -1.635896403272454780e+00 7.791780196417766868e-01 2.778803789221949927e+00 -2.433060833676100820e+00 -1.556607688989358307e+00 2.620679389070223464e-01 4.028538463470813236e-01 6.164549439956421573e+00 -3.254744848514483646e+00 3.570872292738692000e+00 9.961338929724929514e+00 -1.672422526242238527e+00 -6.889821706262766465e-01 2.587938444487372092e+00 -3.578611828114554250e+00 -1.377432637074848254e-01 -6.695939943050026599e-01 2.686669328262593082e-01 2.459808022073911360e+00 6.156193353991519235e-01 4.622353299597979692e+00 -1.786465359049884905e+00 -5.232293067644371298e-01 1.742722148909798374e+00 2.240603461732455948e+00 2.876495433013474212e+00 7.868342512683267342e-01 -2.170427252026838616e+00 2.816738362619910951e+00 -1.668762303479273568e+00 -5.915831183986929309e-01 -3.247181176609390540e+00 1.873763574563093726e-01 1.438061825732810162e+00 -1.202773985346783814e+00 7.932306422417070735e+00 2.990347489950783560e-02 -1.451722612178571126e+00 -1.136922885736600719e+00 1.038259879090448923e+00 -2.391033577927699216e-01 6.778626627551959105e-01 4.494368915856151503e+00 -3.551064512346811419e+00 2.038276652378079312e+00 -1.810335996993070129e+00 1.135002271516359906e+00 2.429946199049059619e+00 -8.378701390179055242e-01 -7.387107551544047190e+00 -3.870739565006212080e-01 7.408840059921566468e-01 6.313385472059900305e-01 6.594386501991030824e-01 2.729316734144758172e+00 -1.582790777306953833e+00 -1.676035440703125268e-01 5.254955287001862096e+00 -3.934827916143306847e+00 -2.273513584917304098e-01 -3.431549343118334594e+00 -3.403101112728406541e+00 2.280033388852627407e+00 4.314818482849064551e+00 6.225408485256004099e+00 -1.147678325369948960e+00 2.402134573854488586e+00 5.239496785077129459e+00 6.258716615243119286e+00 -1.612708136164680450e+00 5.683984508356417775e-01 1.432086581492060917e+00 -5.028250303898309514e-01 -6.679546587938574032e-01 7.772954577514683550e-01 3.142109437693664242e-01 2.539905605478410822e-01 7.786941379868245194e-01 3.119632851999761813e-01 -4.547318218736524642e+00 1.919827462608386659e-01 -1.603182198164690764e+00 -1.157065938008426942e+00 3.334307642417228656e+00 6.392313203429312862e-01 1.295615499733940634e+00 5.183227159299810261e+00 1.855008918113127958e+00 -8.876158470945032519e-01 1.646231210393846567e+00 -2.962401138939424250e+00 5.158810933220701500e+00 -2.363587563632885580e+00 2.985904623320828621e-01 -9.813145673464905849e-01 -4.738725037841628129e+00 -7.300406346234238342e-01 3.643478195132565212e+00 4.040362453666320519e+00 -2.568909708417757898e+00 3.174585558629011928e+00 -3.406114960103194367e+00 -2.385628604415262810e+00 -3.347458321953623583e-01 -4.500150813123189319e-01 1.245246556199529619e+00 2.242300904179848953e+00 7.103490681040395271e-01 -2.092368039377101585e+00 4.792464697899112003e-01 2.302189615066152051e+00 -4.527186993540217586e+00 -8.357433223070847017e-01 8.640177461089425526e-01 -1.712981681964190761e+00 9.147805826802219986e-01 3.164336626360306326e+00 -7.863493411720250403e-01 -7.493969292628624990e-01 6.293612144453227586e+00 -1.693770911775709931e-01 1.265522791626120025e+00 4.146602501955108266e+00 -2.230930970840158400e-01 -7.017559264080707182e-01 -2.637206441557114478e-01 4.008305936801578540e+00 -3.928624357922962496e+00 -3.327287501765360478e+00 5.779187324082089017e-01 3.168450391758411921e+00 -2.345977562404942887e-02 2.373153096624831537e+00 1.573092575380918623e+00 -1.492520880514287995e+00 3.015239370154048526e+00 3.598165583493101671e+00 -2.664110467260728754e+00 4.112091609809722215e+00 -1.777137396009679238e+00 1.312997701202962997e+00 3.538034674668985691e+00 1.699408313033139439e+00 -2.073447289649187120e+00 4.791255765092743424e+00 -4.285760386738867389e+00 1.532975649439263233e+00 2.244373727719819467e+00 -4.793724538552282532e-01 -3.968068169001353063e+00 1.402568257877951030e+00 -8.814462274386937468e-02 -2.563014682602271499e+00 -4.393579092499177996e+00 3.934229877498557126e+00 -3.782206191432221920e-01 -1.519522608146106846e+00 -3.083552044134322934e+00 1.007076508931455283e+00 7.385041927093523029e-01 -9.560169670308372725e-01 -5.609777322781333009e-01 -3.055298703380130654e+00 2.878370795814336192e-01 1.624363976199539206e+00 1.278285748773744013e+00 -6.282347112131190237e-01 3.245795351890903291e+00 -2.603355294537448850e-01 2.320331834692474615e+00 -4.225277750973211788e+00 1.521563550004242149e+00 -5.208376664061131756e-01 -5.290435999339853090e-01 8.794952741986419298e-01 1.949467142301740896e+00 -1.546966051337547166e+00 2.545984208074786981e+00 1.633225026867059393e+00 4.552099956791147761e+00 1.992249274000694514e+00 4.409124497717947122e+00 7.928891997136642278e-01 -1.638464421322222586e+00 -2.367119745447834323e+00 -9.046360372084923940e-01 -1.302922061301651668e+00 9.513668694689531025e-01 1.798754204735377282e+00 4.846962833451871511e+00 -4.321234414208085184e+00 3.762359844489734151e+00 -1.219578202777372278e+00 5.062880495240241530e+00 2.520083426907636426e+00 6.772788166010696997e+00 -1.732882022077528728e+00 -3.608974502076625512e+00 -5.333188306239670107e-01 4.568314363107783826e+00 2.526326065899262563e+00 5.666711835891119833e-03 -1.335733968337620592e+00 1.445588987969994577e+00 1.368759791174291029e+00 3.407380457183786793e-02 -4.572839505045699582e+00 -2.472367862055004362e-01 1.340929654035428520e+00 -3.044617825744623030e+00 -4.591525255925247073e+00 -8.859677698318870753e-01 1.804717107679931987e+00 -3.610712567957325536e+00 4.724268237791333647e+00 -5.199033274400682858e-01 -1.327116144049263147e+00 -1.189533831412979303e+00 -6.614804148103181625e+00 1.819898958881642548e+00 4.069444718148231277e-01 3.743437552099795340e+00 -6.050053064513634116e-01 -3.703452780871553607e+00 -9.281179243215565977e-01 -3.186056793441631285e+00 4.260777489476168078e+00 4.433960327867663143e-01 -4.538795011052323858e+00 -1.054405379836665713e+00 -3.027649571918784588e+00