1.164799999999999969e+01 0.000000000000000000e+00 0.000000000000000000e+00 2.474000000000000199e+00 1.266000000000000014e+01 0.000000000000000000e+00 -1.058999999999999941e+00 -1.092000000000000082e+00 1.172000000000000064e+01
1.160299999999999976e+01 0.000000000000000000e+00 0.000000000000000000e+00 2.383000000000000007e+00 1.260200000000000031e+01 0.000000000000000000e+00 -1.090000000000000080e+00 -1.125000000000000000e+00 1.169299999999999962e+01
1.165199999999999925e+01 0.000000000000000000e+00 0.000000000000000000e+00 2.851999999999999869e+00 1.259999999999999964e+01 0.000000000000000000e+00 -7.600000000000000089e-01 -1.290999999999999925e+00 1.178599999999999959e+01
1.161800000000000033e+01 0.000000000000000000e+00 0.000000000000000000e+00 2.544999999999999929e+00 1.257600000000000051e+01 0.000000000000000000e+00 -1.088000000000000078e+00 -1.199000000000000066e+00 1.177699999999999925e+01
1.165300000000000047e+01 0.000000000000000000e+00 0.000000000000000000e+00 2.666999999999999815e+00 1.241799999999999926e+01 0.000000000000000000e+00 -7.750000000000000222e-01 -1.054999999999999938e+00 1.192200000000000060e+01
1.239100000000000001e+01 0.000000000000000000e+00 0.000000000000000000e+00 4.390000000000000013e-01 1.198199999999999932e+01 0.000000000000000000e+00 -8.379999999999999671e-01 7.540000000000000036e-01 1.171000000000000085e+01
1.166000000000000014e+01 0.000000000000000000e+00 0.000000000000000000e+00 2.536999999999999922e+00 1.254400000000000048e+01 0.000000000000000000e+00 -8.339999999999999636e-01 -1.247999999999999998e+00 1.168299999999999983e+01
1.156099999999999994e+01 0.000000000000000000e+00 0.000000000000000000e+00 2.644000000000000128e+00 1.256099999999999994e+01 0.000000000000000000e+00 -8.699999999999999956e-01 -1.082999999999999963e+00 1.172600000000000087e+01
1.186999999999999922e+01 0.000000000000000000e+00 0.000000000000000000e+00 1.709999999999999964e+00 1.236599999999999966e+01 0.000000000000000000e+00 -8.920000000000000151e-01 -4.329999999999999960e-01 1.191000000000000014e+01
