7.472428999999999988e+00 -4.065520000000000245e-01 6.493089000000000333e+00 3.182999000000000134e+00 9.807323000000000235e+00 8.811318999999999235e+00 1.270295899999999989e+01 8.173353000000000534e+00 6.448498999999999981e+00 1.410819000000000045e+00 4.685942999999999969e+00 4.584598999999999869e+00 1.064675899999999942e+01 7.766903000000000112e+00 1.042726900000000079e+01 3.242179000000000144e+00 -9.378969999999999807e-01 1.142696899999999971e+01 3.905098999999999876e+00 5.140513000000000332e+00 2.807869000000000170e+00 4.738329000000000235e+00 5.798512999999999806e+00 1.141096899999999970e+01 2.022479000000000138e+00 9.321493000000000251e+00 1.450598999999999972e+00 8.628178999999999377e+00 2.000202999999999953e+00 9.597989000000000104e+00 4.937749000000000166e+00 5.879502999999999702e+00 7.457479000000000191e+00 1.671608999999999901e+00 1.078681999999999919e+00 2.884218999999999866e+00 9.897659000000000873e+00 3.459642999999999802e+00 3.526360000000000050e-01 8.585179000000000116e+00 4.013329999999999953e-01 1.682798999999999934e+00 3.363589000000000162e+00 7.602702999999999989e+00 9.786398999999999404e+00 2.926528999999999936e+00 1.084176300000000026e+01 4.253789000000000264e+00 3.512408999999999892e+00 2.936363000000000056e+00 3.729658999999999835e+00 6.560029000000000110e+00 1.159404000000000101e+00 8.787690000000000223e-01 8.088269000000000375e+00 1.155406299999999931e+01 8.125738999999999379e+00 1.101045900000000088e+01 3.033812999999999871e+00 1.092196900000000070e+01 8.270478999999999914e+00 1.455923000000000078e+00 3.952999000000000152e+00 1.155265900000000023e+01 9.924023000000000039e+00 8.838089999999999558e-01 1.034885899999999914e+01 3.678202999999999889e+00 5.030559000000000225e+00 6.271138999999999797e+00 1.100186300000000017e+01 9.420849000000000473e+00 6.022618999999999723e+00 1.088807999999999998e+00 5.389688999999999730e+00 1.098345899999999986e+01 1.110666299999999929e+01 3.125418999999999947e+00 8.710888999999999882e+00 9.258452999999999378e+00 8.119168999999999414e+00 5.361178999999999917e+00 2.063182999999999989e+00 8.927528999999999826e+00 1.045245899999999928e+01 6.799180000000000224e-01 4.426288999999999696e+00 9.670099000000000444e+00 4.547032999999999880e+00 2.960768999999999984e+00 1.118155900000000003e+01 5.490673000000000137e+00 1.024886899999999912e+01 1.467049000000000047e+00 2.681303000000000214e+00 7.879849000000000103e+00 2.248399000000000036e+00 2.707120000000000082e-01 7.532258999999999816e+00 2.600198999999999927e+00 1.169986300000000057e+01 6.336159000000000319e+00 3.251158999999999910e+00 6.374163000000000245e+00 5.168279000000000067e+00 7.011699000000000126e+00 3.820142999999999844e+00 1.013136899999999940e+01 1.102915899999999993e+01 5.205203000000000024e+00 7.097889000000000337e+00 1.215795899999999996e+01 9.494512999999999536e+00 1.130426899999999968e+01 1.523778999999999995e+00 2.210322999999999816e+00 4.881008999999999709e+00 4.185709000000000124e+00 8.742750000000000243e-01 1.075906900000000022e+01 9.235208999999999335e+00 1.223087999999999953e+00 7.542619000000000185e+00 6.006749000000000116e+00 5.284233000000000402e+00 1.859499000000000013e+00 3.725338999999999956e+00 6.309912999999999883e+00 7.754640000000000422e-01 4.864169000000000409e+00 9.178952999999999918e+00 4.098709000000000380e+00 1.221765899999999938e+01 1.147576300000000060e+01 7.794679000000000357e+00 1.110395899999999969e+01 2.432443000000000133e+00 2.475149000000000044e+00 2.901448999999999945e+00 1.082436299999999996e+01 1.102056900000000006e+01 4.163148999999999766e+00 4.371762999999999622e+00 9.319499000000000422e+00 8.841678999999999178e+00 9.844222999999999502e+00 1.029316900000000068e+01 1.060935899999999954e+01 7.670753000000000377e+00 7.833688999999999680e+00 5.275078999999999851e+00 8.359363000000000099e+00 1.725429000000000102e+00 1.239825899999999947e+01 1.159386300000000070e+01 1.017656900000000064e+01 3.327488999999999919e+00 9.294233000000000189e+00 6.235399000000000136e+00 1.138375899999999952e+01 1.644552999999999932e+00 6.122188999999999659e+00 7.207818999999999754e+00 4.475029999999999841e-01 8.906589000000000311e+00 7.815279000000000309e+00 7.768932999999999645e+00 9.949090000000000433e-01 1.016365900000000089e+01 9.372882999999999853e+00 5.897399000000000058e+00 3.913178999999999963e+00 3.272323000000000093e+00 7.316608999999999696e+00 8.660059000000000395e+00 7.228453000000000017e+00 1.141286900000000060e+01 1.239265900000000009e+01 9.493033000000000499e+00 4.523899000000000115e+00 1.090495899999999985e+01 2.895112999999999825e+00 8.273998999999999882e+00 1.060225900000000010e+01 9.387809999999999766e-01 6.296209999999999862e-01 1.746569000000000038e+00 7.191853000000000051e+00 1.108496899999999918e+01 5.161338999999999899e+00 3.284723000000000059e+00 1.147876899999999978e+01 1.737938999999999901e+00 5.391932999999999865e+00 6.591859000000000357e+00 6.274138999999999911e+00 1.169736299999999929e+01 7.157389000000000223e+00 5.751618999999999815e+00 5.820092999999999961e+00 4.358829000000000065e+00 1.652328999999999937e+00 4.042233000000000409e+00 1.049446900000000049e+01 1.193175899999999956e+01 7.670092999999999606e+00 2.440099000000000018e+00 9.810159000000000518e+00 6.684523000000000437e+00 1.809419000000000111e+00 7.476188999999999751e+00 4.028012999999999622e+00 3.910899000000000125e+00 7.493539000000000172e+00 7.347102999999999717e+00 5.344528999999999641e+00 7.152468999999999966e+00 8.592542999999999154e+00 3.144578999999999791e+00 1.751209000000000016e+00 5.877202999999999733e+00 8.840448999999999558e+00 4.347239000000000075e+00 9.005410000000000359e-01 2.224928999999999935e+00 7.729019000000000084e+00 -6.867109999999999603e-01 1.082186899999999952e+01 1.182365899999999925e+01 6.768213000000000257e+00 4.624458999999999875e+00 8.699249000000000009e+00 7.120123000000000424e+00 8.952648999999999191e+00 1.198015900000000045e+01 5.528203000000000422e+00 2.114568999999999921e+00 9.464399000000000228e+00 8.237413000000000096e+00 3.709019000000000066e+00 7.917838999999999849e+00 1.016748300000000071e+01 5.904800000000000326e-02 7.208179000000000336e+00 9.899003000000000441e+00 6.125079000000000384e+00 5.187918999999999947e+00 7.641162999999999705e+00 6.122849000000000430e+00 7.440239000000000047e+00 1.098866300000000074e+01 2.362128999999999923e+00 9.250068999999999875e+00 1.083406300000000044e+01 4.871898999999999980e+00 9.009698999999999458e+00 4.704263000000000083e+00 8.754889000000000365e+00 9.668568999999999747e+00 6.073413000000000395e+00 5.767458999999999669e+00 1.811709000000000014e+00 3.304053000000000129e+00 1.358168999999999960e+00 5.514338999999999658e+00 1.005047300000000021e+01 6.148259999999999836e-01 4.794528999999999819e+00 1.245506300000000088e+01 1.053998999999999908e+00 2.040198999999999874e+00 1.217489000000000043e+00 9.829769000000000645e+00 9.015159000000000589e+00 4.682222999999999580e+00 1.115866899999999973e+01 5.056588999999999778e+00 1.131706299999999921e+01 3.131908999999999832e+00 6.472399000000000235e+00 6.165383000000000280e+00 1.006226900000000057e+01 5.550188999999999595e+00 3.729473000000000038e+00 5.355858999999999703e+00 1.336105899999999913e+01 1.177016300000000015e+01 2.329788999999999888e+00 6.777288999999999675e+00 8.366562999999999306e+00 9.007009000000000043e+00 1.221575900000000026e+01 9.323302999999999230e+00 8.587429000000000201e+00 5.380809000000000175e+00 9.425853000000000037e+00 7.612778999999999741e+00 9.180399999999999672e-02 6.595159999999999911e-01 1.103736899999999999e+01 7.019188999999999901e+00 1.210956299999999963e+01 4.318458999999999826e+00 5.890849000000000224e+00 2.182863000000000220e+00 3.206608999999999821e+00 7.867669000000000246e+00 3.048623000000000083e+00 6.191059000000000090e+00 3.004369000000000067e+00 7.547263000000000055e+00 3.079809000000000019e+00 9.670529000000000153e+00 1.147246299999999941e+01 9.763990000000000169e-01 7.712479000000000084e+00 2.874052999999999969e+00 1.483929000000000054e+00 3.863789000000000140e+00 1.348923000000000094e+00 5.850359000000000087e+00 3.942318999999999907e+00 3.873673000000000144e+00 1.343850000000000044e-01 7.480629000000000417e+00 5.447182999999999886e+00 7.334639000000000131e+00 2.389709999999999890e-01 -4.274249999999999994e-01 8.751649000000000456e+00 8.753790000000000182e-01 -2.144139999999999935e-01 7.536528999999999812e+00 3.262078999999999951e+00 6.214443000000000161e+00 2.080138999999999960e+00 8.220409000000000077e+00 6.334613000000000049e+00 6.126799000000000106e+00 1.127125900000000058e+01 1.090269999999999989e-01 1.375669000000000031e+00 2.397928999999999977e+00 8.272372999999999976e+00 2.272918999999999912e+00 6.768208999999999698e+00 4.951933000000000362e+00 7.845659999999999856e-01 2.278608999999999885e+00 1.514283000000000046e+00 8.311339000000000254e+00 5.252958999999999712e+00 3.292492999999999892e+00 1.195729999999999987e-01 7.070679000000000158e+00 -6.753249999999999531e-01 8.029279000000000721e+00 4.140029000000000181e+00 6.533063000000000287e+00 6.380389000000000088e+00 9.913458999999999577e+00 1.085816299999999934e+01 6.130138999999999783e+00 8.047859000000000762e+00 1.023208299999999937e+01 7.269568999999999726e+00 6.560088999999999615e+00 4.625763000000000069e+00 4.943158999999999637e+00 4.245859000000000272e+00 1.234656299999999973e+01 2.294078999999999979e+00 1.033479000000000037e+00 3.432773000000000074e+00 4.455929000000000251e+00 3.414749000000000034e+00 1.420493000000000006e+00 3.070108999999999977e+00 6.147839000000000276e+00 7.298483000000000054e+00 9.214098999999999151e+00 4.989459000000000088e+00 -3.835680000000000200e-01 7.233359000000000094e+00 9.819459000000000160e+00 8.655703000000000813e+00 7.137298999999999616e+00 9.280789000000000399e+00 1.063286300000000040e+01 1.136436899999999994e+01 1.150605900000000048e+01 1.026555300000000059e+01 8.021789000000000058e+00 5.100878999999999941e+00 6.771333000000000268e+00 1.046178999999999970e+00 5.550429000000000279e+00 1.174866300000000052e+01 8.299469000000000207e+00 2.190599000000000185e+00 7.270373000000000197e+00 9.499758999999999176e+00 6.198688999999999893e+00 2.859033000000000158e+00 1.035456899999999969e+01 8.437779000000000806e+00 4.795643000000000100e+00 3.561589000000000116e+00 4.401549000000000156e+00 1.870913000000000048e+00 7.013689000000000284e+00 6.420689000000000313e+00 1.493063000000000029e+00 8.397778999999999883e+00 1.071155899999999939e+01 1.692552999999999974e+00 7.497389000000000081e+00 8.891669000000000267e+00 3.780022999999999911e+00 1.379569000000000045e+00 8.018079000000000178e+00 7.690813000000000343e+00 3.769798999999999900e+00 3.052878999999999898e+00 3.075273000000000145e+00 1.152449000000000057e+00 1.102675900000000020e+01 1.115746299999999991e+01 1.020056899999999978e+01 2.719729000000000063e+00 3.584879999999999733e-01 1.074686900000000023e+01 1.207425899999999963e+01 5.534663000000000110e+00 3.884618999999999822e+00 1.038955900000000021e+01 1.050866300000000031e+01 1.648728999999999889e+00 7.223879000000000161e+00 2.318973000000000173e+00 4.289350000000000107e-01 7.780668999999999613e+00 1.102406299999999995e+01 4.992728999999999751e+00 2.487058999999999909e+00 3.715282999999999891e+00 7.446809000000000012e+00 9.837459000000000842e+00 1.154436300000000060e+01 3.982388999999999957e+00 3.778999000000000219e+00 4.254600000000000048e-01 1.035188999999999915e+00 1.075895900000000083e+01 6.488423000000000052e+00 7.095398999999999567e+00 4.466039000000000314e+00 4.484042999999999779e+00 1.083086899999999986e+01 5.595269000000000048e+00 8.655143000000000697e+00 1.167686899999999994e+01 8.112508999999999304e+00 2.790493000000000112e+00 4.357308999999999877e+00 1.025615900000000025e+01 4.077632999999999619e+00 8.005649000000000015e+00 1.049575899999999962e+01 2.560122999999999927e+00 5.618839000000000361e+00 6.515859999999999985e-01 6.856790000000000385e-01 9.737159000000000120e+00 5.547779000000000238e+00 1.572532999999999959e+00 1.954018999999999950e+00 7.615939000000000014e+00 1.125426299999999991e+01 9.335948999999999387e+00 6.802928999999999782e+00 3.288723000000000063e+00 2.631368999999999847e+00 1.016425899999999949e+01 -1.563099999999999906e-02 1.109926899999999961e+01 1.293058999999999958e+00 1.067501999999999951e+00 4.133619000000000376e+00 6.172549000000000063e+00 9.666883000000000337e+00 8.731619000000000241e+00 2.613529000000000213e+00 9.403233000000000175e+00 6.824099999999999611e-02 4.451829000000000036e+00 9.004872999999999905e+00 5.393549000000000149e+00 2.869479000000000113e+00 3.507500000000000201e-02 6.313678999999999597e+00 4.792199999999999793e-01 5.614882999999999846e+00 9.033898999999999901e+00 2.166179000000000077e+00 6.078712999999999589e+00 7.654529000000000138e+00 5.980589000000000155e+00 1.085596299999999914e+01 2.155518999999999963e+00 4.803588999999999665e+00 7.852242999999999640e+00 3.115349000000000146e+00 1.028675899999999999e+01 5.519682999999999673e+00 2.372758999999999840e+00 1.320895900000000012e+01 1.122416300000000078e+01 6.842749000000000414e+00 4.530129999999999990e-01 2.772123000000000115e+00 8.702849000000000501e+00 4.354089000000000098e+00 5.735382999999999676e+00 8.649048999999999765e+00 4.493019000000000318e+00 3.979232999999999798e+00 6.238099000000000061e+00 6.975709000000000160e+00 9.558999999999999442e-02 1.025096899999999955e+01 2.039099000000000217e+00 6.047152999999999778e+00 1.165146900000000052e+01 6.452009000000000327e+00 5.857582999999999984e+00 2.991089000000000109e+00 6.402319000000000315e+00 2.606952999999999854e+00 5.733079000000000036e+00 1.124738999999999933e+00 2.041373000000000104e+00 6.323058999999999763e+00 1.055205899999999986e+01 -6.186930000000000485e-01 8.967359000000000080e+00 8.574498999999999427e+00 1.664833000000000007e+00 2.383208999999999911e+00 3.397689000000000181e+00 1.102296300000000073e+01 5.586788999999999561e+00 1.238380000000000036e-01 4.223753000000000313e+00 1.074956899999999926e+01 9.908758999999999872e+00 4.761722999999999928e+00 5.587119000000000391e+00 6.190428999999999959e+00 6.168042999999999942e+00 1.142486899999999928e+01 2.186039000000000065e+00 9.542832999999999899e+00 4.557709000000000010e+00 4.635379000000000360e+00 4.459742999999999569e+00 2.009129000000000165e+00 1.057405900000000010e+01 2.471903000000000183e+00 1.178409000000000040e+00 4.944529000000000174e+00 -2.441669999999999952e-01 3.003798999999999886e+00 1.030115900000000018e+01 7.043453000000000408e+00 2.822959999999999914e-01 2.189559000000000033e+00 1.195496299999999934e+01 3.795109000000000066e+00 9.128529000000000337e+00 -1.552229999999999999e-01 6.911248999999999754e+00 6.754779000000000089e+00 5.603160000000000363e-01 6.276818999999999704e+00 1.224015900000000023e+01 6.734882999999999953e+00 1.600408999999999970e+00 6.503949000000000424e+00 1.092537000000000091e+00 4.006308999999999898e+00 8.490748999999999214e+00 6.024453000000000280e+00 8.240339000000000524e+00 9.715488999999999820e+00 8.230212999999999113e+00 1.135376899999999978e+01 7.882368999999999737e+00 8.257232999999999379e+00 8.232319000000000386e+00 4.668979000000000212e+00 3.441092999999999957e+00 8.585649000000000086e+00 8.194708999999999577e+00 9.806402999999999537e+00 2.894689000000000068e+00 1.049555900000000008e+01 3.676252999999999993e+00 3.598768999999999885e+00 3.374248999999999832e+00 5.103873000000000104e+00 6.482799999999999674e-02 8.995428999999999675e+00 5.401380000000000070e-01 4.521929000000000087e+00 1.133195899999999945e+01 6.676862999999999992e+00 1.105706900000000026e+01 1.066655899999999946e+01 1.470763000000000043e+00 3.178099000000000007e+00 6.032549000000000383e+00 7.028913000000000189e+00 5.159659000000000439e+00 8.054788999999999533e+00 4.219562999999999953e+00 6.793889000000000067e+00 7.489558999999999855e+00 8.559843000000000757e+00 6.051209000000000060e+00 3.073078999999999894e+00 2.203402999999999778e+00 5.150119000000000113e+00 7.482498999999999789e+00 9.502033000000000840e+00 1.052506900000000023e+01 5.415559000000000012e+00 8.023573000000000732e+00 7.363819000000000337e+00 8.342418999999999585e+00 3.306172999999999806e+00 8.973038999999999987e+00 2.639228999999999825e+00 7.210962999999999568e+00 4.352168999999999954e+00 9.485568999999999917e+00 9.730553000000000452e+00 9.123948999999999643e+00 9.884759000000000739e+00 4.904092999999999591e+00 9.907368999999999204e+00 9.070869000000000071e+00 7.943390000000000173e-01 4.684240000000000070e-01 1.007605900000000076e+01 7.837333000000000105e+00 2.565268999999999799e+00 6.179588999999999999e+00 9.401573000000000846e+00 4.083728999999999942e+00 1.171305899999999944e+01 9.142092999999999137e+00 5.748699000000000225e+00 3.469739000000000129e+00 1.128286300000000075e+01 9.704478999999999189e+00 4.767379000000000033e+00 1.124406300000000059e+01 3.142710000000000226e-01 4.850958999999999577e+00 6.092769999999999575e-01 5.131338999999999650e+00 6.230069000000000301e+00 5.810312999999999839e+00 7.132838999999999707e+00 1.084405899999999967e+01 4.754283000000000037e+00 2.348599999999999993e-02 8.337429000000000201e+00 6.703872999999999749e+00 1.666679000000000022e+00 1.018955899999999914e+01 6.936263000000000289e+00 4.883098999999999634e+00 2.241648999999999781e+00 2.463312999999999864e+00 1.044736900000000013e+01 1.603819000000000106e+00 1.046936299999999953e+01 1.083356900000000067e+01 8.656278999999999613e+00 9.272719999999999851e-01 8.820729000000000042e+00 1.220415900000000065e+01 8.928022999999999598e+00 1.800569000000000086e+00 4.444789000000000101e+00 5.830072999999999617e+00 4.309988999999999848e+00 1.053768999999999956e+00 4.567573000000000327e+00 1.600838999999999901e+00 1.117439000000000071e+00 2.241382999999999903e+00 2.099308999999999870e+00 4.441120000000000068e-01 4.595762999999999820e+00 6.442408999999999608e+00 8.558108999999999966e+00 2.044732999999999912e+00 6.741679000000000421e+00 8.289528999999999925e+00 1.938752999999999949e+00 1.093156899999999965e+01 4.942638999999999783e+00 2.871682999999999986e+00 3.930118999999999918e+00 9.614549000000000234e+00 9.251172999999999647e+00 4.552228999999999637e+00 6.067948999999999593e+00 1.037766300000000008e+01 6.635038999999999909e+00 1.207055899999999937e+01 8.188473000000000113e+00 7.782699000000000034e+00 2.472229000000000010e+00 8.303883000000000791e+00 6.531138999999999584e+00 1.658558999999999894e+00 5.423559999999999492e-01 1.289559999999999873e-01 3.795169000000000015e+00 9.819143000000000399e+00 7.466979000000000255e+00 1.163755899999999954e+01 1.207246300000000083e+01 2.454219000000000150e+00 3.874338999999999977e+00 8.827152999999999139e+00 9.559359000000000606e+00 1.246395899999999912e+01 6.914863000000000426e+00 5.909059000000000061e+00 1.020735900000000029e+01 7.220353000000000243e+00 9.131899000000000655e+00 4.453528999999999627e+00 1.462142999999999970e+00 9.655398999999999177e+00 8.057508999999999588e+00 6.927513000000000254e+00 1.028856900000000074e+01 1.203835899999999981e+01 7.845922999999999981e+00 3.809159000000000184e+00 5.618498999999999910e+00 1.190556300000000078e+01 4.146289000000000335e+00 8.715849000000000402e+00 8.823142999999999958e+00 6.078540000000000054e-01 7.879500000000000393e-02 1.945942999999999978e+00 1.157436900000000080e+01 2.475448999999999788e+00 5.274103000000000208e+00 5.426238999999999812e+00 4.661768999999999608e+00 9.152692999999999302e+00 9.373789999999999623e-01 2.227749000000000201e+00 4.858122999999999969e+00 9.573669000000000651e+00 1.801099000000000006e+00 9.663702999999999932e+00 8.789649000000000711e+00 4.727478999999999765e+00 -2.627950000000000008e-01 1.130426899999999968e+01 1.103455899999999978e+01 4.447289999999999854e-01 5.707849000000000395e+00 4.048949000000000353e+00 1.024813299999999927e+01 3.491648999999999781e+00 1.155915899999999930e+01 8.878012999999999266e+00 1.013436899999999952e+01 8.257849000000000217e+00 1.119066300000000069e+01 1.043959000000000081e+00 4.174869000000000163e+00 6.890873000000000026e+00 1.071406900000000029e+01 1.032385900000000056e+01 2.340962999999999905e+00 9.705818999999999974e+00 6.572719000000000200e+00 8.423462999999999923e+00 1.836208999999999980e+00 6.411829000000000001e+00 4.988362999999999658e+00 9.430949000000000026e+00 5.715138999999999747e+00 1.072286300000000026e+01 1.058206900000000061e+01 7.122689000000000270e+00 2.906800000000000009e-02 1.650039000000000033e+00 7.762559000000000431e+00 4.408172999999999675e+00 1.111166899999999913e+01 2.935229000000000088e+00 4.199362999999999957e+00 3.607269000000000059e+00 1.228055900000000022e+01 1.084006300000000067e+01 3.900500000000000078e-01 2.504649000000000125e+00 1.068296300000000087e+01 1.793198999999999987e+00 1.178405899999999917e+01 1.028206300000000084e+01 3.660609000000000002e+00