-8.072285061755494098e+04
-8.070732461250298365e+04
-8.072628662637993693e+04
-8.072830765165250341e+04
-8.072139351555760368e+04
-8.070336666093183157e+04
-8.071966566149603750e+04
-8.072866660149204836e+04
-8.070197324898959778e+04
