5.504871677143554187e+00 -4.152153514139177659e+00 6.679205659631205272e+00 -1.428656215370715188e+00 -1.570471078380975660e+00 1.765139599226102918e-01 5.410455104829597905e-01 -6.887985938453861090e-02 1.023123793528792014e+00 5.263490835982258531e-01 -2.085668772426285400e-01 -3.020458710002895231e+00 4.648353839576033764e+00 3.603853892597332353e-01 -5.240577162714807891e-01 1.562671379186166609e+00 3.588323399778133194e+00 1.964384684076623255e-01 -4.145510811462586709e+00 1.110398354890962169e+00 3.570878463386789825e+00 -1.980982699016631265e+00 2.061719972940536216e+00 -3.448831785776452774e-01 2.110026891569146468e+00 8.241203923954107946e-01 4.088422546371043964e+00 4.714651796952586515e+00 5.780891965618928374e+00 4.605865842103044727e+00 -1.668793670940434515e+00 -5.135820126852035372e-01 -4.462910951856833841e-01 1.773571789850870717e+00 7.330364842745945575e-01 -1.110902805372904867e+00 -1.636739725179066518e+00 1.737038467791640173e+00 1.763348054395227793e+00 -1.544559498579654910e+00 2.965477721236533082e+00 3.363422302801649444e+00 9.097019336079902985e+00 6.259227750593834294e-01 2.709095006109693227e+00 -1.444379026722276915e+00 -2.952816579782512107e+00 6.263670617223787707e-01 1.591780383143165167e+00 -2.932745004184477811e+00 2.127775218158600268e+00 -2.605475940600173068e+00 1.167773040898347547e+00 -9.920237271191102435e-01 4.374422315481548473e+00 -7.064667020095770633e-01 -1.780497313898582457e+00 -3.682768254229201954e+00 -9.616466549781456097e-01 -1.119667696774244492e+00 -2.920746178959551465e+00 2.582199741757014166e+00 -3.590794744341045508e+00 -6.020199469019578586e+00 -3.219446170295359178e+00 4.278603463387511852e+00 7.842379510814471155e-01 -1.578687296322343059e+00 -3.517147545080776538e+00 5.830974488237494757e-01 -7.296662819721961846e-01 -3.313194769952798158e+00 5.274342434881786446e+00 5.580942398443982988e+00 -3.334133835829158787e+00 -5.585979189953288682e+00 9.520199297259024362e-01 1.049772765777723160e+00 3.396509317898616320e+00 5.118933634113485454e+00 -5.336765739473998238e+00 1.385545496660588016e+00 7.558467991864180613e-01 6.919050009416309877e-01 -1.664618713282031370e+00 -1.194733630876185337e+00 -2.692986015031384461e+00 -6.193318544047403229e+00 -2.832469915722943377e+00 6.777294796004321720e-01 3.848132881481594936e+00 -1.904997338348214109e-01 -2.474936908546121472e+00 4.701776225477188653e+00 4.687656239968864824e-01 -4.117690958737219020e+00 -2.989391039495723490e-01 -1.868328262030846121e-01 7.093910749869557497e-01 -3.310964080665675380e-01 4.640744916251562380e+00 1.451106575810204635e+00 4.830352991436344112e+00 -9.726478920940306860e-01 -6.047507672173556559e-01 3.089022837893129481e+00 4.349569001828889725e+00 -2.070758429740850115e+00 1.909865465476198398e+00 -5.572782744776838548e+00 2.222065806407240274e+00 5.485903619113561724e+00 -1.743773215969014911e+00 -5.399226067954792541e+00 2.470334633506990230e+00 -1.178511511249428628e-01 3.046323495722812247e+00 -1.815257088850554590e+00 1.645936561947207499e+00 1.845758602394812042e+00 7.407389957618735199e-01 -1.352417858130314565e+00 -3.994893004721054020e+00 -1.537009196412106204e+00 -8.777741776002092600e-01 1.746908933643720685e+00 -9.210257927752217577e-02 1.102771433842873572e+00 6.610949549925155821e-01 -2.392154578998683181e-02 -1.512381111414994539e+00 -3.102849717616838809e+00 -5.125612846457984206e-01 -1.161291803513631482e+00 -3.653906076196089092e+00 1.178976366739414861e+00 8.783290217082788676e-01 1.210917698173009371e-01 1.622695844330606985e+00 1.290090712804284223e+00 -9.911762914471005104e-01 -7.093437666848774192e-01 7.999362341068223081e+00 2.972724633205971578e+00 -2.196413908046674912e+00 2.175428048088911215e+00 2.140518634920583363e+00 4.534355229746417137e+00 9.338021196603898400e-01 -2.223578643632393437e+00 -3.700444075703513747e+00 -6.618582127400665982e+00 4.803912278560691362e+00 -1.327648876668317879e+00 -4.028013958382555271e-01 1.503743232520321271e+00 -1.113267192035466424e+00 7.868512205505940882e-01 -1.328012944906050263e+00 -3.553835647563110545e-01 3.067809692397120536e+00 4.691275839298523209e+00 -1.567440261723920925e+00 -8.200868454225678228e-01 -4.807963309036477062e-01 1.024101327031517045e-01 -1.131891750654716811e+00 -9.377225380847849234e-02 4.047085374768175647e+00 -3.461286210519219364e-01 1.481675966483530837e+00 -4.317890437160100126e-01 -2.024485768101603078e+00 -3.146375926632174913e+00 6.605503952979412396e-01 -1.149931126146086724e+00 6.004795988707045673e+00 2.339749321592210052e+00 -2.807032961604428722e-01 1.235389460084992813e-01 -4.868678886767799696e+00 -3.527563084848106101e+00 2.864091401896834643e+00 -1.424594386260760626e+00 2.565517908847019246e+00 3.094009235776308819e-01 -4.449602920793961358e-01 -2.662674763136789302e+00 -1.090875966973574807e+00 3.094353763628400200e-01 -1.596693247469853416e+00 -3.290366971538033258e+00 -2.429506540372136758e+00 -7.043388568574066033e-01 2.658368164985647208e+00 -1.759907918081061506e+00 2.440240896957820205e+00 -3.338342732052096196e+00 4.030648825120042744e+00 1.231974006363215191e+00 -3.030997148511493489e+00 -7.088017780936769485e-01 -1.041091178125695293e+00 -2.918510861686355803e-02 -5.317345167250214777e-01 4.901041364934025424e+00 9.410927403871832686e-01 -5.770108243848468099e+00 2.222568200006483696e+00 -2.781713764020435686e+00 -3.365738866941457852e-01 -3.914794392875205364e+00 -1.763559399092555546e+00 -1.908360341561166074e-01 2.279929002055650411e+00 -2.294951444848184474e-01 -3.950448911801265200e-02 6.703204338522407824e+00 2.238614970383145941e+00 -1.072089943062448869e+00 1.256943533888369657e+00 2.516065820775711170e+00 9.057092157567233626e-01 -1.609966825747517483e+00 3.103506891639186138e-01 5.909732526784236550e-02 -3.925394537864774769e+00 3.877678458791468330e+00 -1.092100326400186283e+00 2.699812808709541323e-01 1.479396940452980092e+00 -1.096591015552893733e+00 1.588049712147757919e+00 3.857735438362123848e+00 5.044201429229465683e-01 -1.951733827036097324e+00 1.265738764309520592e+00 -2.989449660652646390e+00 -3.667229019658530653e+00 -2.879980306526345180e-01 1.602859267580939662e+00 -4.440521783677641721e-01 -4.077476845088032764e-01 3.766043721403737887e+00 -5.294981710104760264e-01 -1.856530497089752707e+00 -3.315414146385076588e+00 -2.766738629529980065e-01 -2.331707938680262160e+00 1.619078816104322138e+00 -1.318433013735210713e+00 6.471318067899940463e-01 -3.111780702296126577e+00 4.723528274240349628e-02 -1.965080424649577662e+00 3.955785493963957844e+00 -5.664718716555737110e+00 3.348934135290194680e-01 -3.094598018448912580e+00 1.964944156170765677e+00 -1.294002389477208137e+00 -4.437453943132004142e+00 8.292970519282525377e-01 3.650092615672045349e-01 2.389531539336716026e+00 3.831358488850142852e+00 -3.076021796573089606e-01 2.459508231420524549e+00 3.499765343611753732e-01 5.182130840821215223e-01 -7.447123789157691354e-01 4.262416310766640182e-01 -8.968461082065037893e-01 3.010102819833838428e+00 1.652820434120263249e+00 1.363173297763662806e+00 -7.301013126630458983e-01 -1.163959066153628541e+00 -7.855055050447385945e-01 9.839921143999827979e-01 2.746488619357802641e+00 -1.445609042576310621e+00 -1.100020867453564699e-01 -4.184151409846996295e+00 2.256570013683854903e+00 2.292699158292721417e+00 2.148609383017308083e-01 -3.210742471154316019e-02 -1.873523947728654049e+00 4.202445838793049226e+00 1.912651513092065381e+00 -1.906627417887213696e-02 -7.697461840252689536e-01 3.640481831260719559e-01 -1.790333326965453775e+00 1.915579999834841896e-01 -1.503021266692953661e+00 -1.939002751570308769e+00 -1.082056568180710387e+00 1.172021532113241671e+00 -1.951118304888405541e+00 -9.610501589954201229e-01 -6.767761144694212083e-02 3.642899696873456605e+00 2.193315728481226301e-01 -1.034676789428698340e+00 -1.818016911212008813e+00 -3.783423351769386933e+00 3.137527731481523086e-01 4.850932617061043395e+00 -2.745135704762500684e+00 8.329834999456302569e-01 -6.296966405914709020e-01 -2.612765532885616970e-01 -1.424664834493202914e+00 4.980884409104515242e+00 2.744566976696212190e+00 5.490839623370614930e+00 -1.393936549631374922e+00 -1.899020551445441019e+00 2.753145205992613143e+00 -2.437120091682682066e+00 -5.863520028963937314e+00 2.116706618134321261e+00 8.674830792361721832e-01 -1.317930105915292360e+00 -5.184415523279187532e+00 3.022165922643109681e+00 6.811007103441800714e-01 3.922962274073144240e+00 -4.612307484495803966e-01 -5.509051777008705519e-01 -1.236695580598891619e-01 -2.059158125538865569e+00 -9.270056650020438438e-01 4.633043947426306985e+00 1.533228131790571824e+00 2.001549983345137562e+00 -3.163326182734396141e+00 -1.042051742346153054e+00 -1.129099018170077739e+00 1.964035528238458728e+00 7.819959489394793239e-01 3.073009491860326570e+00 -2.378681483099211125e+00 1.263451510748173412e+00 7.903921441170137507e-01 3.205452168852351846e+00 1.104470418952291366e+00 -2.680280136378659250e+00 1.670825871047098898e+00 -1.176182091592751222e+00 9.578419362055721198e-01 -2.148720454683057390e+00 -1.845954520471896620e-01 -1.062971267836871903e+00 1.485619010617615476e+00 6.675078010274880791e-01 2.176139729502783560e+00 -2.264900388615019577e-01 6.882946575841182302e-01 -2.524410593885769494e+00 -2.227781369207233464e+00 4.113781853167668423e+00 -1.220744969488410048e+00 3.341079414483185683e+00 -2.416276156631152805e+00 1.698731598625151218e+00 -2.044768174176290199e+00 -3.297182966582020217e-03 2.588721088354362099e+00 1.682512564322443005e+00 -1.461368877816454914e-01 -1.823219795999263537e+00 2.231100663662830344e-02 -3.216454948630261601e+00 3.636133581234922030e+00 -8.016180956677705360e-01 -1.436937225117103090e+00 -3.698680298789075671e+00 4.049056382614542038e+00 -2.087401696100237736e+00 1.829603845676449403e+00 -9.164584847419744440e-01 -8.049409896680906895e-01 -8.920869958615698092e-01 -6.070771015499847323e-01 -3.146353815143160038e+00 -1.006939726231968146e+00 3.737355864179370268e-02 -1.694894998170742406e+00 5.090607788244150278e+00 -5.720782139842476299e-01 2.163110920266307247e+00 -2.724341134895749000e-02 -2.684271003035496594e+00 -3.027174946235978492e+00 1.729543701456965898e+00 3.874232666049879370e+00 -7.532312671463022191e+00 -1.676432419064042501e+00 2.232082310930953550e+00 -4.919752826847310523e+00 -2.394951939469395441e+00 2.202230258098921922e+00 4.039692424127103720e+00 4.436616791873489341e+00 -9.870383576772805423e-01 -2.302058488794087587e+00 1.541923603400818577e+00 6.298725040622399352e-01 3.967731868680058338e-01 1.560387725169543049e+00 -1.039147423975090162e-01 -1.863076012058814346e+00 -1.777930324290164288e+00 2.581482918136393856e+00 -1.002812076875643443e+00 1.041800288436193656e+00 -2.998883553151853246e-02 7.138776503742650936e-01 -1.643632853324267673e+00 3.460620294745401004e+00 4.035514381144651885e+00 -7.075367952337592581e-02 -1.773813473568009558e+00 6.646190121208031876e+00 1.239049682847957801e+00 -1.937026601517193525e+00 1.898214253427412013e+00 9.816426401369896526e-01 -1.276367191436202253e+00 2.494746745820701328e+00 3.609561742087205038e-01 1.442359167911806628e+00 1.068292937599996995e+00 -2.906163909064614970e+00 7.555382667815601083e-01 -7.348521974771836662e-01 -3.005349878137001163e+00 -3.408408898533313303e-02 6.324868019727364343e-01 -1.673119295256542793e+00 1.343225135127571690e+00 4.689908526524327881e-01 -2.878871132530880228e+00 6.040858798848868227e-01 2.308818948005200156e+00 6.884242411941584594e-01 -4.753198292953515036e+00 -1.439501129401472568e+00 -2.725044074558150786e+00 -1.966055901269603723e+00 -4.545163634109266049e+00 -1.100408075621661652e+00 -3.782869536102666519e-01 -1.018422273899431518e+00 -1.405212380587583576e+00 -4.126801406431999553e+00 -5.837335397984317886e-01 7.498802966971399586e-01 -5.445360404232526541e-01 2.426716893211546378e+00 1.137181538736006692e+00 3.981080523176237840e+00 -2.258045827020425250e-02 5.194254621670108207e+00 -4.365686220437995146e+00 8.678744011696669647e-01 8.052577496037448546e-01 -2.140402935268761908e+00 -9.863220482773351616e-01 1.259451388119189996e+00 6.258122176143091631e-01 -1.713910364502813088e+00 1.682142325436613683e+00 -1.488745472320176289e+00 3.738862530756426605e-01 2.877468852750800998e+00 7.556220847515464634e-01 -2.025813485883841969e-01 1.032159165005057389e-01 9.808918779518351894e-01 1.182595451848398316e+00 3.130086958317699342e+00 -2.055861456792958286e+00 -6.473122982468358932e-01 3.378018456654804380e-01 1.839849692621107424e+00 -2.378294789151789157e+00 -3.172978619020377256e+00 -1.900328214621363754e-01 -2.998152331352339939e+00 1.012353955716550402e+00 -5.153056803870099678e-01 -2.497466973190198836e-02 -4.550140261799625385e+00 3.108554996003336957e+00 7.587320913925147403e-01 1.173565736799555781e+00 1.163220645264668285e+00 -8.971055839589894276e+00 1.549856485750391366e+00 2.775814624439551861e-02 1.244284963537722444e+00 4.249473376382847944e-01 -5.216964149329677447e+00 2.167921454678717108e+00 -1.915657132936056550e+00 -2.639418618899946445e+00 -3.467441946216810233e+00 3.773862960984187609e+00 -7.601235725384239972e-01 4.648605293485993606e+00 2.882649111828366362e+00 -2.927148226360353878e+00 -1.323229149968727647e+00 -5.105938249220868030e+00 1.059411832326160763e+00 6.441746265335654975e+00 3.556034969389073375e+00 7.135531771284896185e-02 -1.500073753785210684e+00 -2.825854466742113935e+00 -1.076942643570189817e-01 1.452817902215816748e+00 2.960195132244689997e+00 -1.156803685464297571e+00 -3.986743635467405511e+00 4.555483528831089757e+00 -4.621891015211367026e+00 -2.101041913719007947e+00 3.138239927116070582e+00 -8.750796612644498040e-01 -2.096216466907029563e+00 3.931983247370516299e-01 1.697132372326637384e+00 -1.591132979313638174e+00 1.404697131471470684e+00 2.384712777393509509e+00 -2.486620002276742625e+00 -8.214947816300696148e-01 2.287356405481931199e-01 -3.178365594809197336e+00 -1.034642850864163910e-01 -1.586517334536963197e+00 -2.837304104286392459e+00 -7.840374050182894461e-01 1.906967831973907179e+00 2.900534221117307077e+00 2.200442827033444737e-01 -1.920773114429276118e+00 3.774262510448479269e+00 -1.179340949197821953e+00 1.025140052794539125e+00 2.449587886162991890e-01 1.555726828973488907e+00 1.839829123794116894e+00 -3.065653050887163555e+00 -5.973429041767162051e-01 1.469895170824704556e+00 -3.372852081535457902e+00 1.629332890579776594e+00 -1.095823798306147179e+00 6.099683587159085540e+00 4.293166707117482273e-01 -1.211113616250094172e+00 2.840930902705497640e+00 -9.229597767330063318e-01 -1.047577557717159102e+00 2.185917635633407130e+00 -4.481149844970012452e+00 -1.622134315353765732e+00 -1.064739158516708084e+00 -4.934497590475471762e-01 1.208402130632067362e+00 -2.406861804517587355e+00 -3.650611978553556236e-01 -3.445654930447765274e+00 -3.575176834007135263e+00 7.834450228009621764e-01 1.736784956998982166e+00 1.145455349392947353e+00 3.895190758091204852e-01 -9.812405195693246762e-01 5.436289551529702863e-02 -1.878470236399202076e+00 1.220682748786763583e-01 3.854196057457728308e+00 2.399432344208607848e+00 -1.807317007411534782e+00 -3.770775065832234207e-01 -6.699935951913611909e+00 -2.722541362534077747e-01 -1.622368285760783069e+00 -5.850370892089566954e-01 -5.320075679033207244e-02 1.770950807071602462e+00 -6.558607541661678475e+00 2.478630041432271280e+00 7.713412965583845704e-01 -3.245749072030175153e+00 -1.947840148086789736e+00 -4.088874032123485769e+00 8.159386272392525896e-01 -1.544724049195579374e+00 7.954381915984656271e-01 -3.077291921639755401e-01 -1.497362268167184096e+00 5.387109486195345021e-01 1.385685878904798329e+00 5.790957835327418257e-01 3.411766759539517135e+00 -7.550631268780788607e-01 1.793704043488527411e+00 5.682992062454124138e-01 -1.095148112339508151e+00 -1.699266902347579933e+00 6.735740623276703642e-01 -3.465925509446933894e+00 5.269370435177500589e+00 3.870472170255334632e+00 1.753924446309516050e-01 -6.085539433279046895e-01 -2.262285576483848093e+00 2.688715926548150392e+00 2.477922988004471527e+00 3.857873763723635996e-01 -7.716462294185192361e-01 -2.377811421717511919e+00 -2.584935395746754683e+00 3.606144231482728113e+00 -3.170776726091041109e+00 2.118295560019339607e+00 -5.765536307829147944e+00 1.143105875129954097e+00 4.281930985373904597e-01 3.882650458495753742e+00 -2.189484784454240052e-01 -3.663814080157427711e+00 3.391234956437569892e+00 1.148619863425440535e+00 2.526926675647386267e-01 1.130261156895042474e+00 -1.743757275128096973e+00 -1.035863610746051933e+00 -1.034960639241167657e+00 1.653675583102394375e+00 -3.295130197648365122e+00 3.069043307795877862e+00 1.389313705765253149e+00 4.598959344220299172e+00 -6.084577840617240163e-01 -1.379696236485155936e+00 2.790264739621073797e+00 1.492490541494476908e+00 -4.796665880811927796e-01 3.403807651935532252e+00 -1.938645882422022737e+00 -1.441881971125626549e+00 5.126409888503867807e-01 8.623768679357729505e-01 -5.612919211104135941e-01 -7.047209228187557573e-01 -5.237553545147198619e+00 -2.324115984638057242e+00 -8.480918175908496170e-01 7.299861272318989291e-01 -2.621296968100613967e+00 -7.397019669270783027e+00 -3.326493545043525679e-01 3.114166686227028413e-01 -5.458179925654375042e-01 -9.540541867152659838e-01 1.010936763536903094e+00 1.324470478677606033e+00 -4.789613344257549699e+00 1.416420848635398411e+00 1.660914267541036660e+00 1.517876587766189556e-01 -6.395655637815274019e-01 1.395022069475800208e+00 8.171794417274563793e-01 -1.786709613870397284e+00 -9.863945533924769471e-01 3.062182575553186403e+00 -3.991967089081651099e-01 -3.796890277020761317e+00 -7.978236613086924223e-01 1.084213209690667590e+00 -4.719275669260057371e-01 -1.287666676543450350e+00 9.056968744605290930e-03 -1.430298121985234427e+00 4.879717147772267616e+00 -5.416200492428727920e+00 -3.540291074989846187e+00 -3.222143771955167768e+00 -3.044104119290534261e+00 1.349253344097821605e+00 -2.561113094546997093e+00 7.751259607246421268e-01 -4.406300397772146549e-01 -1.066733820514114806e+00 1.692887994877141589e+00 1.431025744240024489e+00 2.169291852776961793e+00 1.956258968974014190e+00 -1.271963405577529738e+00 9.831935296920755185e-01 -4.756813778517774982e-01 5.575046858407821659e-01 -1.349748024386943968e+00 -1.233395312308261049e+00 -1.351373990160545047e+00 2.782842992622215572e+00 1.320907443622171495e+00 1.279690085436522518e+00 2.468938010154333451e+00 5.032530162574363253e+00 -5.092375164703312862e+00 -1.462423030199719587e-01 -1.812441216435550784e+00 -2.160603066035486464e+00 -3.708652066114085155e+00 1.588011145597150398e+00 -2.699552098827436630e+00 8.296976298338931688e-01 8.387150035865417186e-01 -1.573792429719271579e+00 2.990333605992564703e+00 -2.969905161246244596e+00 3.925346201121346912e+00 1.266104375209277100e+00 3.272157903223991138e+00 5.429848937578293899e+00 1.451346202644644201e+00 -1.089885577953980889e+00 2.388040813600577229e-03 6.720108314763900692e-01 2.864713094692623030e-01 -3.509227004027397623e-01 -1.101398464641255570e+00 -3.383285619026404678e+00 -3.887308783588433680e+00 2.410347706471807516e+00 -5.053046024835393668e-01 -9.293237718038765971e-01 -1.562366960546706540e+00 -2.041801120882906329e+00 1.471939198006888327e+00 -5.948643605243573163e-01 -5.982685528133575126e+00 8.106647799988806469e-01 8.961303130272332274e-01 -1.150431462862631316e+00 1.369721383836097983e+00 4.214532081532684771e-01 4.012067975258147179e+00 -3.993910843232256203e-01 1.157474229224189299e+00 -9.543370080863856908e-02 -1.018388849555572184e+00 2.907681374275841168e-01 3.002354542706505147e-01 -3.058144914814945547e+00 -2.824968464519496347e+00 1.559950123375319464e+00 -3.846497145515173521e+00 -7.325670007985358723e-01 5.787306868536600257e-01 6.253522986428009744e+00 -5.386601950389354521e+00 2.633962737540707977e+00 5.536411402230158707e+00 -8.805514834646055791e-03 1.521121320223945417e-01 1.644020061492364737e-01 -1.584477421120177310e+00 4.674543098541726671e+00 1.884038217865538378e+00 -2.139970989901960330e+00 -3.126557861826798845e+00 1.256437026523727685e+00 1.868292780804287290e+00 -7.588153951418262766e-01 1.049153644085308423e+00 -1.369647850279607004e+00 -1.550774883875518428e+00 -3.031234204242559294e+00 -9.882154088018134663e-01 -1.697072208507690139e+00 -1.097444107652326251e+00 -4.956197702950482231e-01 -1.251667629765298884e+00 -3.814550671874831211e-01 1.322834742711184397e+00 9.282475079315970490e-01 7.186831454240627082e+00 -2.138580022976725559e+00 5.920428316819312808e-01 2.274094654279786631e+00 -1.207528983926319466e+00 -5.423511167761837504e-01 -3.323071920673650759e+00 8.600932139191493908e-01 2.727360124477284042e+00 2.526968841742716965e+00 2.650773125619393600e+00 -1.542200254123841097e+00 -1.877454650566544370e+00 -5.910401013661428227e-01 -8.299573112746484738e-02 1.418182568667137433e+00 -6.058275453103100228e-01 -3.214669060226808650e+00 6.631919469042001358e-01 3.223372759367851170e+00 2.493959988188313659e+00 -3.705569827389554316e+00 -2.006557978496657402e+00 1.336337149189117834e+00 2.153269250772013255e+00 -2.075762311126970960e+00 1.713561208664649005e+00