1.705010000000000048e+01 6.568979999999999819e+00 7.215840000000000032e+00 1.764270000000000138e+01 6.357000000000000206e+00 2.014389999999999858e+01 1.046659999999999968e+01 1.416039999999999921e+01 6.854790000000000383e+00 1.071610000000000085e+01 1.418449999999999989e+01 1.963980000000000103e+01 4.635740000000000194e+00 1.837750000000000128e+01 2.557100000000000151e+01 2.715269999999999850e+00 1.932969999999999899e+01 9.673749999999999849e-01 3.723419999999999952e+00 8.828530000000000655e+00 4.035319999999999574e+00 4.545930000000000248e+00 6.633969999999999700e+00 5.488059999999999938e+00 5.155380000000000074e+00 5.295980000000000132e+00 3.600579999999999892e+00 1.668359999999999843e+01 7.425889999999999880e+00 9.440649999999999764e+00 1.828000000000000114e+01 5.785730000000000040e+00 8.980299999999999727e+00 2.999490000000000212e+00 8.889089999999999492e-01 3.078079999999999927e+00 1.836170000000000080e+00 2.461580000000000101e+00 4.632649999999999935e+00 3.913839999999999986e+00 3.132400000000000073e+00 3.582949999999999857e+00 3.023829999999999796e+00 8.729839999999999378e+00 1.597679999999999989e+00 4.885849999999999582e+00 6.681840000000000224e+00 7.971370000000000289e+00 4.991590000000000416e+00 1.914450000000000074e+01 1.166119999999999912e+01 3.200039999999999996e+00 6.832510000000000527e-01 1.094560000000000066e+01 3.507849999999999913e+00 2.627799999999999928e-02 1.325430000000000064e+01 3.040369999999999795e+00 8.041320000000000690e+00 1.601679999999999993e+01 4.077899999999999636e+00 6.887679999999999580e+00 1.810650000000000048e+01 3.191580000000000084e+00 5.564840000000000231e+00 1.629570000000000007e+01 1.713279999999999959e+01 6.551809999999999690e+00 2.241590000000000060e+01 1.865129999999999910e+01 4.904300000000000104e+00 2.173130000000000095e+01 2.310449999999999893e+00 8.501360000000000028e-01 1.541869999999999941e+01 1.704939999999999900e+00 1.192209999999999992e+00 1.760859999999999914e+01 2.532840000000000202e+00 2.931020000000000181e+00 1.649309999999999832e+01 1.964040000000000008e+00 9.911509999999999820e+00 1.471090000000000053e+01 5.154080000000000439e+00 6.261160000000000281e+00 2.040240000000000009e+01 1.820850000000000080e+01 9.733719999999999928e+00 2.563260000000000005e+01 1.591130000000000067e+01 9.530960000000000321e+00 2.487709999999999921e-01 1.784769999999999968e+01 1.627489999999999881e+01 3.235059999999999825e+00 1.749980000000000047e+01 1.567050000000000054e+01 5.552959999999999674e+00 1.709019999999999939e+01 1.407329999999999970e+01 3.868059999999999832e+00 9.815519999999999801e-01 9.739610000000000767e+00 3.584019999999999984e-01 1.038279999999999959e+01 1.514729999999999954e+01 9.168210000000000193e+00 1.152260000000000062e+01 1.296819999999999951e+01 8.693469999999999587e+00 1.506799999999999962e+01 9.920260000000000744e+00 2.548669999999999991e+00 1.562759999999999927e+01 9.693160000000000664e+00 4.897990000000000066e+00 1.648870000000000147e+01 1.155129999999999946e+01 3.805320000000000036e+00 1.787630000000000052e+01 1.722139999999999915e+01 8.369419999999999638e-01 1.764079999999999870e+01 1.554959999999999987e+01 8.014540000000000219e+00 1.795670000000000144e+01 1.023230000000000040e+01 1.266329999999999956e+01 1.633200000000000074e+01 8.616139999999999688e+00 1.169849999999999923e+01 1.570730000000000004e+01 9.661300000000000665e+00 1.342029999999999923e+01 1.682750000000000057e+01 1.596039999999999992e+01 1.651180000000000092e+01 1.844620000000000104e+01 1.543099999999999916e+01 1.834059999999999846e+01 1.678430000000000177e+01 1.398590000000000089e+01 1.785109999999999886e+01 4.652709999999999901e-01 1.097320000000000029e+01 1.324009999999999998e+01 2.564480000000000093e+00 1.125140000000000029e+01 1.283910000000000018e+01 9.597820000000000462e+00 1.456680000000000064e+01 2.166100000000000136e+01 1.098099999999999987e+01 1.292670000000000030e+01 2.129169999999999874e+01 1.573509999999999920e+01 1.016680000000000028e+01 1.596589999999999954e+01 1.577929999999999922e+01 9.587939999999999685e+00 1.841349999999999909e+01 1.672060000000000102e+01 1.140310000000000024e+01 1.775400000000000134e+01 1.583230000000000004e+01 1.725329999999999941e+01 1.474099999999999966e+01 1.958759999999999835e+01 1.584989999999999988e+01 2.059629999999999939e+01 1.681030000000000157e+01 8.461100000000000065e+00 2.423710000000000164e+01 3.220330000000000137e+00 9.527400000000000091e+00 2.556139999999999901e+01 1.564279999999999937e+01 1.730760000000000076e+01 2.564930000000000021e+01 1.401609999999999978e+01 1.820349999999999824e+01 1.296069999999999922e+01 1.587149999999999928e+01 1.688540000000000063e+01 1.232859999999999978e+01 1.806779999999999831e+01 1.746529999999999916e+01 2.486710000000000065e+01 1.379100000000000037e+01 1.791779999999999973e+01 2.415340000000000131e+01 9.912209999999999965e+00 2.717659999999999965e+00 1.719379999999999908e+00 9.415580000000000283e+00 2.905850000000000044e+00 1.088620000000000054e+01 8.587350000000000705e+00 4.236740000000000173e+00 9.006589999999999208e+00 9.953070000000000306e+00 2.408009999999999984e+00 8.564700000000000202e+00 1.435749999999999993e+01 6.062750000000000306e+00 3.506089999999999929e+00 1.605339999999999989e+01 5.914299999999999891e+00 5.154189999999999827e+00 1.482479999999999976e+01 4.005139999999999922e+00 4.721429999999999794e+00 5.752110000000000056e+00 7.264710000000000001e+00 1.032559999999999967e+01 6.794310000000000294e+00 6.097870000000000346e+00 8.574199999999999378e+00 1.091760000000000019e+01 2.235399999999999832e+00 4.222870000000000346e+00 1.173850000000000016e+01 1.923610000000000042e+00 6.665449999999999875e+00 1.323210000000000086e+01 2.201929999999999943e+00 4.965360000000000440e+00 1.320059999999999967e+01 6.746089999999999698e+00 1.161189999999999944e+00 1.165579999999999927e+01 1.918440000000000012e+01 1.349220000000000041e+01 1.070199999999999996e+01 1.519409999999999927e+00 1.286330000000000062e+01 1.102909999999999968e+01 9.240530000000000133e-01 1.516709999999999958e+01 1.020369999999999955e+01 3.510749999999999815e+00 2.342109999999999914e+01 9.443709999999999383e+00 4.311560000000000059e+00 2.146290000000000120e+01 1.075249999999999950e+01 2.302430000000000199e+00 2.150880000000000081e+01 1.483750000000000036e+01 6.164380000000000415e+00 1.604360000000000142e+01 1.639460000000000051e+01 5.846809999999999619e+00 1.799470000000000169e+01 1.470679999999999943e+01 4.352940000000000254e+00 1.740309999999999846e+01 5.928829999999999600e+00 5.175150000000000361e+00 2.274279999999999902e+01 7.043009999999999771e+00 4.579390000000000072e+00 2.071509999999999962e+01 1.129499999999999993e+01 1.079830000000000068e+00 1.743629999999999924e+01 1.171390000000000065e+01 1.021530000000000049e+00 1.971460000000000079e+01 1.279509999999999970e+01 2.664960000000000218e+00 1.829380000000000095e+01 1.351590000000000025e+01 6.841239999999999988e+00 1.369459999999999944e+01 8.416779999999999262e+00 6.036039999999999850e+00 2.311890000000000056e-01 6.080779999999999852e+00 6.198629999999999640e+00 1.393429999999999946e+00 3.653509999999999813e+00 1.299370000000000047e+01 1.131879999999999953e+01 2.161160000000000192e+00 1.409259999999999913e+01 1.020809999999999995e+01 4.212469999999999715e+00 1.340840000000000032e+01 9.140380000000000393e+00 9.038940000000000197e+00 1.504630000000000045e+01 2.227759999999999962e+00 9.440229999999999677e+00 1.469919999999999938e+01 4.658780000000000143e+00 7.315120000000000289e+00 1.473750000000000071e+01 3.922400000000000109e+00 1.121579999999999977e+01 6.437120000000000175e+00 6.331100000000000616e-02 1.762650000000000006e+01 1.531080000000000041e+01 1.046299999999999919e+01 1.939389999999999858e+01 1.438979999999999926e+01 9.524929999999999453e+00 4.866340000000000110e+00 1.105439999999999934e+01 4.824519999999999698e+00 4.858620000000000161e+00 1.265760000000000041e+01 6.758530000000000371e+00 5.199840000000000018e+00 1.344810000000000016e+01 4.591580000000000439e+00 8.935340000000000060e+00 1.584009999999999962e+01 2.607740000000000080e+01 8.728970000000000340e+00 8.027779999999999916e+00 1.379090000000000060e+01 6.614460000000000228e+00 8.011630000000000251e+00 1.284399999999999942e+01 7.019269999999999676e+00 8.665770000000000195e+00 1.511589999999999989e+01 3.726789999999999825e+00 1.055579999999999963e+01 2.334969999999999857e+01 2.615489999999999871e+00 1.272700000000000031e+01 2.284230000000000160e+01 4.029219999999999580e+00 1.168999999999999950e+01 2.124630000000000152e+01 9.296939999999999316e+00 1.543469999999999942e+01 1.559280000000000044e+01 9.697179999999999467e+00 1.371899999999999942e+01 1.739900000000000091e+01 7.512880000000000003e+00 1.428650000000000020e+01 1.660989999999999966e+01 1.127110000000000056e+01 7.283280000000000420e+00 1.298320000000000007e+01 1.305979999999999919e+01 7.384420000000000428e+00 1.131439999999999912e+01 1.961550000000000082e+01 1.695860000000000056e+01 2.269650000000000034e+01 8.384030000000000094e-01 1.474440000000000062e+01 2.244419999999999860e+01 6.176099999999999923e+00 1.047269999999999968e+01 1.697980000000000089e+01 5.107639999999999958e+00 1.148310000000000031e+01 1.876190000000000069e+01 5.782199999999999562e+00 1.272390000000000043e+01 1.678879999999999839e+01 8.635059999999999292e+00 1.641460000000000008e+01 1.319929999999999914e+01 6.394160000000000288e+00 5.687120000000000175e+00 2.516009999999999991e+01 1.294069999999999965e+01 7.571500000000000341e+00 2.500700000000000145e+01 6.822280000000000122e+00 1.690009999999999835e+01 2.527939999999999898e+01 7.064510000000000289e+00 1.758020000000000138e+01 1.186749999999999972e+01 8.831640000000000157e+00 1.638459999999999894e+01 1.101190000000000069e+01 8.543810000000000571e+00 1.588010000000000055e+01 2.363899999999999935e+01 1.324189999999999934e+01 8.545320000000000249e+00 8.931010000000000559e+00 1.298969999999999914e+01 1.091960000000000086e+01 8.679669999999999774e+00 1.372789999999999999e+01 9.616989999999999483e+00 6.793840000000000323e+00 1.352849999999999930e+01 9.431520000000000792e+00 2.304500000000000171e+01 1.261389999999999922e+01 1.100430000000000064e+01 2.155979999999999919e+01 1.431349999999999945e+01 9.469179999999999708e+00 2.062849999999999895e+01 2.750840000000000174e+00 1.986319999999999908e+01 2.458810000000000073e+01 9.751649999999999707e+00 3.034170000000000034e+00 2.604469999999999885e+01 1.824629999999999974e+00 2.206440000000000179e+00 9.355219999999999203e+00 7.328999999999999578e-03 3.765509999999999913e+00 8.852370000000000516e+00 1.190430000000000099e+00 3.086240000000000094e+00 6.979870000000000019e+00 1.582470000000000043e+00 1.167729999999999935e+00 2.237519999999999953e+01 4.159720000000000084e-01 2.919070000000000054e+00 2.177049999999999841e+01 1.046780000000000044e+00 1.354279999999999928e+00 2.009179999999999922e+01 1.700140000000000029e+01 6.540939999999999976e+00 5.700829999999999842e+00 1.737369999999999948e+01 6.230080000000000062e+00 1.884159999999999968e+01 1.036059999999999981e+01 1.408440000000000047e+01 5.549290000000000056e+00 1.050869999999999926e+01 1.350070000000000014e+01 1.839199999999999946e+01 2.688530000000000086e+00 1.514469999999999983e+00 1.013150000000000084e+01 2.812739999999999796e+00 1.967119999999999891e+01 2.220849999999999991e+00 3.794799999999999951e+00 1.830470000000000041e+01 4.936400000000000232e-01 1.923999999999999844e+01 4.962489999999999846e+00 9.575760000000000716e+00 3.123450000000000060e+00 8.348190000000000666e+00 2.893339999999999801e+00 4.409740000000000215e+00 6.869729999999999670e+00 6.801510000000000389e+00 4.874789999999999957e+00 3.951169999999999849e+00 3.373390000000000111e+00 5.160409999999999719e+00 5.556070000000000064e+00 4.916590000000000238e+00 5.621540000000000425e+00 6.267050000000000232e+00 2.634059999999999846e+00 4.092859999999999943e+00 7.646080000000000432e+00 4.717109999999999914e+00 1.773750000000000071e+01 5.496629999999999683e+00 7.879050000000000331e+00 1.645810000000000173e+01 7.540650000000000297e+00 7.974199999999999733e+00 1.785500000000000043e+01 6.843530000000000335e+00 9.828670000000000684e+00 2.747290000000000010e+00 3.584579999999999878e+00 4.165090000000000181e+00 3.736190000000000122e+00 1.954649999999999999e+00 2.794210000000000083e+00 1.863450000000000051e+00 1.282429999999999959e+00 4.019829999999999792e+00 1.586619999999999919e+01 8.146699999999999164e+00 1.025239999999999974e+01 2.925769999999999982e+00 1.977659999999999840e+01 1.462449999999999939e+01 2.857650000000000023e+00 7.065529999999999866e-01 1.223249999999999993e+01 4.330700000000000216e+00 1.879360000000000142e+01 1.290540000000000020e+01 4.249200000000000088e+00 1.961580000000000013e+01 1.059500000000000064e+01 1.950870000000000104e+01 3.845390000000000086e+00 2.227769999999999939e+01 2.569879999999999942e+00 9.296189999999999287e+00 1.582549999999999990e+01 4.312179999999999680e+00 6.884000000000000341e+00 1.950120000000000076e+01 2.499400000000000066e+00 4.363900000000000112e+00 1.622640000000000171e+01 4.193830000000000169e+00 5.766820000000000057e+00 1.730750000000000099e+01 3.138630000000000031e+00 6.861259999999999692e+00 1.544909999999999961e+01 3.408549999999999969e+00 7.894429999999999836e+00 1.741890000000000072e+01 1.872540000000000049e+01 5.520290000000000141e+00 2.044679999999999964e+01 1.687809999999999988e+01 6.984200000000000408e+00 2.110170000000000101e+01 1.799699999999999989e+01 5.506400000000000183e+00 2.277629999999999910e+01 2.454330000000000123e+00 2.371830000000000105e+00 1.775230000000000175e+01 2.657849999999999824e+00 2.218570000000000153e+00 1.540690000000000026e+01 1.527770000000000072e+00 5.979950000000000543e-01 1.647769999999999868e+01 1.652580000000000027e+01 7.452860000000000262e+00 2.336570000000000036e+01 1.962269999999999825e+01 1.011899999999999977e+01 2.594190000000000040e+01 1.482269999999999932e+01 9.712690000000000268e+00 1.188800000000000079e+00 1.711080000000000112e+01 1.028509999999999991e+01 2.996929999999999872e-01 1.226970000000000027e+01 1.197000000000000064e+01 9.260709999999999553e+00 1.839460000000000051e+01 1.709059999999999846e+01 2.111390000000000100e+00 1.742399999999999949e+01 1.616760000000000019e+01 6.842629999999999768e+00 1.719819999999999993e+01 1.270180000000000042e+01 3.460869999999999891e+00 1.735920000000000130e+01 1.427570000000000050e+01 5.242560000000000109e+00 1.707319999999999993e+01 1.499060000000000059e+01 2.978320000000000078e+00 1.791219999999999857e+01 1.664489999999999981e+01 4.625259999999999927e+00 1.363029999999999964e+00 9.496109999999999829e+00 1.575139999999999985e+00 1.063780000000000037e+01 1.294519999999999982e+01 7.693819999999999659e+00 1.020659999999999989e+01 1.525159999999999982e+01 7.657269999999999577e+00 1.141370000000000040e+01 1.405419999999999980e+01 9.506809999999999761e+00 1.657669999999999888e+01 1.070439999999999969e+01 4.872429999999999595e+00 1.610460000000000136e+01 1.092070000000000007e+01 2.698510000000000186e+00 1.488920000000000066e+01 9.324830000000000396e+00 3.736209999999999809e+00 1.910160000000000124e+01 1.072240000000000038e+01 1.266109999999999935e+01 1.525200000000000067e+01 9.778729999999999478e+00 1.483339999999999925e+01 1.514739999999999931e+01 9.136169999999999902e+00 1.222359999999999935e+01 1.668420000000000059e+01 1.076769999999999960e+01 1.322630000000000017e+01 1.774010000000000176e+01 9.034069999999999823e+00 1.180840000000000067e+01 1.143909999999999982e+01 1.162129999999999974e+01 2.148479999999999990e+01 1.677619999999999933e+01 1.717060000000000031e+01 1.565980000000000061e+01 1.907489999999999952e+01 1.613909999999999911e+01 1.933599999999999852e+01 1.622289999999999921e+01 1.259399999999999942e+01 1.791610000000000014e+01 1.801899999999999835e+01 1.412260000000000026e+01 1.822869999999999990e+01 1.607310000000000016e+01 1.485459999999999958e+01 1.693329999999999913e+01 1.801170000000000115e+01 1.625710000000000122e+01 1.727880000000000038e+01 2.958159999999999901e+00 1.025060000000000038e+01 1.373509999999999920e+01 6.232720000000000482e-01 1.025689999999999991e+01 1.447300000000000075e+01 1.309909999999999908e+00 1.189710000000000001e+01 1.277309999999999945e+01 1.176629999999999932e+01 1.365789999999999971e+01 2.047400000000000020e+01 9.610849999999999227e+00 1.495950000000000024e+01 2.019089999999999918e+01 9.997740000000000293e+00 1.328439999999999976e+01 2.206230000000000047e+01 1.686240000000000094e+01 1.036810000000000009e+01 1.866649999999999920e+01 1.660719999999999885e+01 1.120199999999999996e+01 1.630979999999999919e+01 1.521439999999999948e+01 9.538650000000000517e+00 1.711870000000000047e+01 3.569189999999999863e+00 1.177630000000000088e+01 1.208900000000000041e+01 1.567919999999999980e+01 8.957629999999999981e+00 2.485310000000000130e+01 1.804990000000000094e+01 9.148039999999999949e+00 2.441639999999999944e+01 3.821889999999999787e+00 8.795650000000000190e+00 6.288280000000000536e-01 1.865140000000000020e+00 9.501350000000000406e+00 2.523959999999999937e+01 4.192879999999999718e+00 9.912589999999999790e+00 2.447800000000000153e+01 1.420229999999999926e+01 1.764890000000000114e+01 2.543059999999999832e+01 1.648019999999999996e+01 1.737089999999999890e+01 9.805739999999999457e-01 1.264289999999999914e+01 1.825270000000000081e+01 1.301389999999999958e+01 1.602339999999999876e+01 1.623829999999999885e+01 1.353589999999999982e+01 1.487410000000000032e+01 1.832610000000000028e+01 1.420209999999999972e+01 1.483309999999999995e+01 1.772700000000000031e+01 1.189879999999999960e+01 1.684199999999999875e+01 1.608830000000000027e+01 1.130669999999999931e+01 1.872390000000000043e+01 1.766880000000000095e+01 2.596310000000000073e+01 1.666209999999999880e+01 1.724919999999999831e+01 2.484779999999999944e+01 1.883459999999999823e+01 1.761459999999999937e+01 2.367500000000000071e+01 1.003209999999999980e+01 2.394019999999999815e+00 1.209890000000000043e+01 9.882780000000000342e+00 2.605760000000000076e+00 3.202630000000000088e+00 9.406219999999999359e+00 1.834079999999999933e+00 8.208410000000000428e-01 7.431809999999999583e+00 4.809680000000000177e+00 8.455159999999999343e+00 1.123150000000000048e+01 1.828829999999999956e+00 8.008879999999999555e+00 9.437839999999999563e+00 3.584119999999999973e+00 8.197749999999999204e+00 9.426130000000000564e+00 1.836629999999999985e+00 9.757070000000000576e+00 8.769890000000000185e+00 4.160070000000000157e+00 1.047240000000000038e+01 1.424530000000000030e+01 6.721560000000000201e+00 2.186690000000000023e+00 1.439100000000000001e+01 2.753629999999999800e+00 4.825210000000000221e+00 1.592849999999999966e+01 4.588280000000000136e+00 5.422299999999999898e+00 1.414850000000000030e+01 4.573010000000000019e+00 3.717130000000000045e+00 1.501069999999999993e+01 6.666529999999999845e+00 4.546249999999999680e+00 6.337489999999999846e+00 6.676289999999999836e+00 7.484829999999999650e+00 4.612440000000000317e+00 6.884159999999999613e+00 9.445809999999999818e+00 6.787069999999999936e+00 6.649320000000000341e+00 9.877589999999999648e+00 1.307360000000000078e+01 1.634139999999999926e+00 6.276810000000000223e+00 1.224230000000000018e+01 2.027070000000000149e+00 3.873610000000000220e+00 1.071359999999999957e+01 2.153259999999999952e+00 5.602350000000000385e+00 5.738369999999999749e+00 7.732529999999999681e+00 1.161810000000000009e+01 1.037429999999999986e+01 9.998019999999999685e-01 1.635879999999999868e+01 1.107879999999999932e+01 1.946420000000000039e+00 1.411209999999999987e+01 1.196920000000000073e+01 1.954380000000000095e+01 1.494650000000000034e+01 1.072209999999999930e+01 1.244119999999999948e-01 1.278159999999999918e+01 8.533239999999999270e+00 4.899339999999999584e+00 2.060820000000000007e+01 1.110970000000000013e+01 9.075159999999999894e-01 2.096490000000000009e+01 1.012219999999999942e+01 3.284539999999999793e+00 2.068560000000000088e+01 1.095439999999999969e+01 2.717470000000000052e+00 2.269510000000000005e+01 9.674459999999999837e+00 4.573550000000000004e+00 2.276010000000000133e+01 1.421090000000000053e+01 6.984969999999999679e+00 1.507300000000000040e+01 1.372579999999999956e+01 3.811920000000000197e+00 1.814089999999999847e+01 1.594860000000000078e+01 4.510620000000000296e+00 1.804250000000000043e+01 1.453400000000000070e+01 4.919800000000000395e+00 1.612610000000000099e+01 1.550639999999999930e+01 6.682190000000000296e+00 1.701589999999999847e+01 6.196329999999999671e+00 5.324379999999999669e+00 1.981759999999999877e+01 5.246459999999999901e+00 6.191729999999999734e+00 2.181030000000000157e+01 6.543820000000000192e+00 4.268550000000000288e+00 2.211599999999999966e+01 1.263049999999999962e+01 2.087990000000000013e+00 1.948720000000000141e+01 1.218750000000000000e+01 2.227860000000000174e+00 1.716679999999999851e+01 1.153640000000000043e+01 1.166200000000000014e-01 1.855529999999999902e+01 5.591300000000000381e+00 5.207300000000000040e+00 2.400059999999999860e+01 9.902979999999999450e+00 6.491789999999999949e+00 5.105900000000000022e-02 4.321710000000000385e+00 9.847970000000000113e+00 4.626490000000000435e+00 7.777770000000000294e+00 6.177690000000000126e+00 1.346289999999999987e+00 8.847930000000000517e-01 1.438100000000000023e+01 9.725360000000000227e+00 4.851650000000000240e+00 1.283079999999999998e+01 8.120050000000000878e+00 3.037420000000000009e+00 1.417050000000000054e+01 9.119040000000000035e+00 4.710569999999999702e+00 1.315569999999999951e+01 1.045689999999999920e+01 2.582120000000000193e+00 1.385560000000000080e+01 1.140240000000000009e+01 9.663510000000000488e+00 1.540740000000000087e+01 1.018659999999999899e+00 5.957919999999999661e+00 1.440189999999999948e+01 3.896710000000000118e+00 7.996360000000000134e+00 1.451800000000000068e+01 5.107910000000000394e+00 7.795049999999999812e+00 1.529940000000000033e+01 2.714170000000000194e+00 1.001740000000000030e+01 1.509980000000000011e+01 3.347199999999999953e+00 1.197150000000000070e+01 6.242580000000000240e+00 1.281150000000000011e+00 1.894559999999999889e+01 1.452909999999999968e+01 8.246990000000000265e+00 1.726670000000000016e+01 1.604810000000000159e+01 9.117179999999999396e+00 1.844729999999999848e+01 1.428459999999999930e+01 1.063100000000000023e+01 4.788759999999999906e+00 1.371790000000000020e+01 5.863999999999999879e+00 5.190000000000000391e+00 1.211640000000000050e+01 3.896840000000000082e+00 5.008880000000000443e+00 1.144529999999999959e+01 6.117840000000000167e+00 9.939030000000000697e+00 7.207709999999999617e+00 1.362379999999999924e+01 6.544559999999999711e+00 9.410999999999999588e+00 1.622080000000000055e+01 6.073199999999999932e+00 8.338200000000000500e+00 1.409670000000000023e+01 8.393159999999999954e+00 8.161500000000000199e+00 1.508530000000000015e+01 7.977000000000000313e+00 8.408329999999999416e+00 1.268239999999999945e+01 1.679210000000000091e+00 1.377330000000000076e+01 2.307809999999999917e+01 4.597279999999999589e+00 1.150530000000000008e+01 1.997719999999999985e+01 3.469069999999999876e+00 1.298199999999999932e+01 2.175799999999999912e+01 4.169909999999999783e+00 1.071770000000000067e+01 2.218740000000000023e+01 2.553620000000000001e+00 1.162700000000000067e+01 2.361120000000000019e+01 9.268240000000000478e+00 1.638269999999999982e+01 1.449060000000000059e+01 6.206610000000000404e+00 1.397899999999999920e+01 1.629550000000000054e+01 8.470319999999999183e+00 1.335490000000000066e+01 1.741740000000000066e+01 7.968069999999999986e+00 1.541960000000000086e+01 1.597010000000000041e+01 1.016890000000000072e+01 1.450629999999999953e+01 1.615200000000000102e+01 1.393280000000000030e+01 7.014210000000000278e+00 1.235640000000000072e+01 1.222300000000000075e+01 6.892649999999999721e+00 1.397390000000000043e+01 1.178889999999999993e+01 7.739899999999999558e+00 1.167089999999999961e+01 7.358430000000000248e-01 1.491789999999999949e+01 2.109560000000000102e+01 1.931060000000000088e+01 1.687300000000000111e+01 2.142139999999999844e+01 6.011269999999999669e-01 1.592340000000000089e+01 2.310360000000000014e+01 4.804090000000000416e+00 1.261180000000000057e+01 1.794810000000000016e+01 6.580840000000000245e+00 1.165709999999999980e+01 1.630679999999999907e+01 5.650350000000000428e+00 1.048920000000000030e+01 1.819869999999999877e+01 1.313410000000000011e+01 7.383670000000000400e+00 9.887069999999999581e+00 5.530750000000000277e+00 6.040409999999999613e+00 2.103559999999999874e-01 7.665790000000000326e+00 5.475909999999999833e+00 2.516009999999999991e+01 1.381080000000000041e+01 7.230540000000000411e+00 2.593489999999999895e+01 1.175350000000000072e+01 7.053790000000000227e+00 2.508279999999999887e+01 1.308440000000000047e+01 8.480890000000000484e+00 2.380460000000000065e+01 6.084319999999999951e+00 1.798560000000000159e+01 2.548620000000000019e+01 7.755720000000000169e+00 1.640879999999999939e+01 2.556350000000000011e-01 6.201130000000000031e+00 1.876640000000000086e+01 1.147400000000000020e+01 9.491989999999999483e+00 1.656889999999999930e+01 1.217399999999999949e+01 7.267999999999999794e+00 1.682250000000000156e+01 1.304030000000000022e+01 7.672600000000000087e+00 1.692920000000000158e+01 1.070749999999999957e+01 9.610459999999999781e+00 1.575440000000000040e+01 9.895060000000000855e+00 9.372669999999999391e+00 1.568469999999999942e+01 2.468349999999999866e+01 7.136840000000000295e+00 1.616079999999999828e+01 2.400489999999999924e+01 8.550060000000000215e+00 1.530530000000000079e+01 2.245420000000000016e+01 1.481690000000000040e+01 9.494669999999999277e+00 5.994860000000000078e+00 1.328880000000000017e+01 1.095030000000000037e+01 7.248350000000000293e+00 1.330869999999999997e+01 8.521919999999999717e+00 7.563279999999999781e+00 1.339639999999999986e+01 9.826650000000000773e+00 9.426230000000000331e+00 1.524510000000000076e+01 8.958140000000000214e+00 1.953709999999999880e+01 1.330119999999999969e+01 1.051329999999999920e+01 2.030799999999999983e+01 1.428889999999999993e+01 8.897080000000000766e+00 2.193809999999999860e+01 1.300019999999999953e+01 1.086589999999999989e+01 2.281429999999999936e+01 2.209569999999999812e+00 3.384969999999999923e-01 2.342269999999999897e+01 2.201389999999999958e+00 1.604829999999999868e-01 2.591829999999999856e+01 4.110940000000000261e+00 1.913690000000000069e+01 2.432460000000000022e+01 9.503980000000000317e+00 3.305219999999999825e+00 2.461449999999999960e+01 1.008489999999999931e+01 4.000860000000000305e+00 8.841259999999999675e-01 1.371240000000000059e+01 1.823509999999999920e+01 2.301210000000000022e+01 1.085509999999999975e+00 2.889180000000000081e+00 5.722089999999999677e+00 1.457960000000000089e-01 3.710409999999999986e+00 7.608200000000000074e+00 2.068029999999999813e+00 2.338719999999999910e+00 7.820520000000000138e+00 4.159530000000000172e-01 2.686209999999999987e+00 9.732499999999999929e+00 1.153720000000000079e+00 6.661789999999999656e-01 1.876510000000000034e+01 3.950730000000000075e-01 2.652839999999999865e+00 2.024609999999999843e+01 1.303849999999999953e+00 5.319739999999999469e-01 2.114160000000000039e+01 1.455389999999999961e+00 2.499579999999999913e+00 2.271930000000000049e+01