1.118414540989846606e-01 -7.290121932738974353e-01 -1.406377090415922515e+00 1.403123101986020749e-01 -1.231747749266319580e+00 2.387788845469943078e-01 -7.111800487144570582e-01 -1.315513268743904840e+00 5.076673950620090636e+00 -1.207360833765671826e+00 -1.064371490734252301e+00 -1.047795587283258723e+00 8.863241247594979555e-01 2.167931739092212595e+00 -4.337146458767958457e+00 3.499872301512104933e+00 -6.412275250023623530e-01 -5.442184577345189567e+00 1.625544112648120931e+00 -4.606045819339211533e+00 7.065649181584567895e-01 -4.929113700010700344e-02 1.879254422928215762e+00 -1.214795950502073785e+00 8.910354145816790084e-01 -2.938920280267709462e-01 -7.627167874012551474e-01 2.435333689058554463e-01 1.807070181487648641e+00 -1.038829635598086609e+00 3.227176449699075356e+00 4.608394265160856151e-02 6.555444056070533598e+00 -4.271456310228977316e+00 1.408569727373113034e+00 -3.042962549392559946e-01 1.671812146301294266e+00 3.269146112731903031e+00 2.733715377796683277e-01 -4.602169109672171743e+00 -1.252652876578145058e+00 -1.089559047825506388e+00 -5.818543203425093679e+00 1.839389979337868963e+00 5.016677767612762295e+00 3.853616530757270731e+00 2.098624048106271012e+00 3.578681762126321608e+00 -4.035999805461628398e+00 -1.181234823942974854e+00 1.053152738272942202e+00 3.368109424252116124e+00 -3.656339882649744411e+00 1.103918145947595519e+00 -2.203558490101835687e+00 -3.250012989865311841e+00 1.539192577397150874e+00 7.820823380128395508e-01 -2.527014093162096020e-01 4.957558845076579956e+00 -1.399019621001409863e+00 2.572928857211707609e-01 -1.042393184874195855e+00 1.526332432541996464e+00 1.129332474356420146e+00 7.024377830228069053e-01 -4.385813846089578472e-01 3.031217749180967314e+00 1.355113917128098366e+00 2.642769795037378078e+00 -1.475761914503078420e-01 -9.808759371109175562e-02 1.909267941052122941e+00 9.561018134421731540e-01 -9.950931103267722788e-01 -2.040587045869790561e-01 1.245982920205790823e+00 5.137275371361615051e+00 7.920906150057568373e-01 3.923335598283022474e+00 1.403918601369879227e+00 1.487924261902579204e+00 -2.966739618772402109e-01 -1.813697457543997638e-01 2.022943106077313313e+00 -2.969002189741360098e+00 6.587634784531389842e-01 2.773688836170079774e+00 2.817841365967277412e+00 8.577920763995836584e-01 -1.305522989474604323e+00 1.886470481657168463e+00 -2.723178481950109031e+00 -1.042083109807313557e+00 2.983672905592356095e-01 -8.336823258426336869e-01 8.912405886309093805e-01 -7.651346530139920832e-01 6.730387586052416493e-01 1.709228899479768415e+00 -5.441077460232424556e+00 3.081898824664959236e+00 -1.702802169486577366e+00 -2.837099444457836794e-01 -4.211807740397788713e+00 5.280608213803777318e+00 -6.071248212286026735e+00 -6.104837106761562993e+00 -7.089082217733528868e-01 7.468294254337695115e-01 1.694394147233523329e+00 4.602815999281023807e+00 2.301170943909446098e+00 -4.219540590904878874e-01 -3.200959422816945121e+00 1.878804479837798080e+00 -5.528335052312326192e-02 2.730286040116686852e+00 8.739643166208882485e-02 -1.657603200616236228e+00 -2.156079980980269095e+00 1.409574514571600323e+00 4.740203936502247473e+00 4.556355132874814196e+00 -2.346372998103835705e+00 -8.409426075496160280e-01 -7.672802387794416035e+00 -2.452214011149008055e+00 -8.019939909810225309e-01 5.704666463895396999e-01 1.190363783582047086e+00 -5.793139159429764540e+00 -4.035644993196041974e-01 5.242750259286356851e+00 2.796105258045034958e+00 2.781288503522406419e+00 2.093380025665035227e+00 1.887197589691284039e+00 -2.180758459603507338e-01 2.536044836652288303e+00 -1.512861907745898016e+00 -4.248464475418962216e+00 -4.474562678126294379e+00 -3.397515133538453469e+00 -3.622028508126165391e+00 -1.017084785924372570e+00 1.815976997795222925e+00 1.740222522209774469e+00 1.251999302100520906e+00 2.673757247119287195e-01 -4.703774487019319217e+00 1.747809334045231644e+00 -4.720849184524833486e-01 4.557042645916972390e+00 -5.469585854441299411e+00 5.875346590262817692e-01 1.546114501900138993e+00 1.288446235086391001e+00 4.592551126171399822e+00 -2.385480508860930993e+00 -1.024543556811813527e+00 -3.454143685346757753e-01 -2.591785329355276168e-01 -1.891234736208850187e+00 -3.119900760971313858e+00 -2.642148616462264510e+00 8.983820853620216873e-01 -7.210161132033961806e+00 2.752697834005569444e+00 -4.465548903918369894e-01 -4.366453437684741923e-02 -6.671247066247895097e-01 7.926104921079425436e-01 -6.124270534502216368e-01 4.857966127450456528e-01 -1.003960331642389958e+00 -3.546021550189408345e+00 1.373894798832477060e-01 1.939308712871792739e+00 4.622186692099355732e+00 2.212627800142635159e+00 -1.530419972685689745e+00 2.497126559103505894e+00 1.486468503172324152e+00 -4.020255911062401211e+00 -2.194113798968458706e+00 7.805612732568897871e-02 3.064590670973102449e-01 -5.901360499978416385e+00 1.703026369700774145e+00 -8.607262195697830132e-01 3.764092253943011279e+00 -3.537010347084856843e-01 1.262227665542236865e+00 4.778479952428249966e+00 3.552287843332073425e-02 -2.019080280368491742e+00 -1.695438529423967333e+00 -2.657817434642975929e+00 7.966800345280189433e-01 1.919017050824959547e+00 2.586603527615686460e+00 -2.556590523712454655e+00 1.190237799516730144e+00 2.472630114599133344e-01 -1.438886121474455715e+00 -1.908199904710639938e+00 -4.043074967725695856e+00 -8.628319532329384867e-01 -8.330297798063589498e-01 1.618226238225564995e+00 5.985816617822208308e-01 6.138303616716505456e-02 -2.771323935286843732e+00 -7.540845649340043311e-01 1.097849827764714403e+00 3.667241360954724971e+00 -2.348346577053577189e+00 2.178485090000378932e+00 -2.451048272879319534e-01 4.742976100159895791e-01 -5.107939081866372799e-01 -1.973250876950890964e+00 -1.001856654861933205e+00 -2.635638068499086481e-02 -2.682997278424108067e+00 -2.716665877104232685e+00 -3.180830254503337340e-01 4.882910972383221804e+00 -2.636975042253471638e-02 -2.015909595687901401e-01 2.725641084761550648e+00 1.293095304206925977e+00 2.788229454190360723e+00 -7.950694953746604288e-01 -1.005993560190403757e+00 1.792768161860458065e+00 2.891158949775023412e+00 -8.976138396739252734e-01 -2.091351425103094464e+00 -2.828247135541787305e+00 1.229907867692016543e+00 2.203241730166181522e+00 8.890875466656757847e-03 -8.277343352976469504e-01 -3.523917774484709664e+00 -3.955796806818802636e-01 -1.686492118124436335e+00 -6.026960956672041014e+00 -2.189807200817316613e+00 3.202784391991680302e+00 -3.665910557848437890e+00 -3.205408974315671511e+00 -2.110932434177404393e-01 -1.846665687665094424e+00 1.427759414513928293e-01 1.030961030832859143e-01 -6.212917036624653333e-01 -3.688733728277130641e+00 4.379710560900813121e+00 -2.785936544201591314e+00 6.696212480007651680e-01 4.679829287078293376e+00 9.173084915173581599e-01 1.365491918786170489e+00 -4.390323561407252217e-01 -5.074057081606220265e-01 5.210572386342370299e-01 -6.724905993659441306e-01 -6.530546005219172168e-01 2.942103306244494121e+00 3.046676765326374881e+00 -1.439670822224144553e+00 2.149021787998468547e+00 1.060119399974634780e+00 2.746125065340745408e+00 3.491594377089765278e+00 1.087566442710798525e-01 -2.337144793874533999e+00 4.297973127764494805e+00 -7.586503303052273273e-01 2.448040081931954215e-01 5.350774653316573426e-01 -2.362717502251185930e+00 1.750204059727603845e+00 -3.066071112295746026e+00 2.339375997382331818e+00 -5.090809362748657918e+00 -7.742687548598118363e-01 1.178671433879280084e+00 1.786664876671693047e+00 3.062865974829946492e+00 3.478811365335825911e+00 2.275605948842915893e+00 1.252691957349427065e+00 -1.386147649070735621e+00 -3.600881697097201017e-02 -2.514835804921677465e+00 -1.161573082222726837e-02 -3.643551728689056746e-01 -7.464046791564151739e-01 9.252706844453925106e-01 1.715345554406077166e+00 -4.523582820830801765e+00 4.786318218173667205e+00 -1.684689774659390779e-02 3.585321379478864645e-01 -5.470937740595250842e-01 -4.973480659829275785e-01 4.512183576912650457e-02 3.341745330257004820e+00 -8.154264634471882767e-01 -9.170868624065352248e-02 1.014773363991311600e-01 -9.003854891108994396e-01 2.465307612190504649e+00 -7.638722412574482368e-01 -2.219390316236446559e+00 -6.647736896997719080e-01 3.291439121644914589e-01 -3.523295053247570863e+00 3.754755549151334915e+00 -2.396760453582537753e+00 -1.853549559838150174e+00 -8.479689188495812546e-01 1.862731484206722854e+00 -2.874521854063732729e+00 -4.840719166018896402e-01 4.958321434337253919e-01 1.759989679168348919e+00 -4.386873654900265151e+00 3.083680085082338707e+00 5.739003549452712960e+00 -1.772326347376594224e+00 2.023195588428622127e+00 -5.571534731199188073e-01 5.365219112070673813e-01 3.341590035613225762e+00 -9.132379206559321227e-01 -8.714410357698249010e-01 -1.857673609649751478e-02 -1.275559864976823832e+00 1.987039704344667923e+00 3.072251530585725643e+00 -3.714430363836399795e+00 7.019657284433741262e-01 -8.968466224271786080e-01 -2.960373566818833013e-01 -6.542357654118484689e-01 5.408588483780205625e-01 1.170493268267845277e+00 -4.559990673045390408e-01 2.252101436020161884e-01 -1.006196677356935076e+00 -4.252733535460846981e-01 -2.550726865358128759e+00 3.680717027957571386e+00 4.112022190018628898e+00 1.021725627514110946e-01 9.461773544192423335e-01 2.287356405481931088e+00 2.732908051337304967e-01 -3.193796328817492647e+00 -3.439385551981052114e+00 5.246310209017742032e+00 3.455974310948915079e-02 3.510173170068962151e-02 2.597452041191167238e-01 1.745999791490739472e+00 3.528314875474610202e-01 1.884418741164863631e+00 4.519442830178283188e+00 -5.430091135516107670e+00 -1.716244926366238266e+00 -1.723358140960238538e+00 1.466292026556638373e+00 2.993505319114504459e+00 -3.590000787619210598e+00 3.764688235705061725e+00 -2.786836430382427121e+00 -1.448850689710018180e+00 -1.851032449635183763e+00 -8.923219947099365890e-02 -1.709760089436799024e+00 3.767084504049459159e+00 -1.180909836476524477e+00 -4.075771689330517589e+00 -4.539344198732971236e+00 -9.225993080399974566e-01 3.062097729141850522e+00 5.729693584136124063e-01 -9.350053960393358565e-01 2.078997273391907097e+00 -6.196287140002810778e-01 9.279600585744044450e-01 -1.547479757791635491e+00 8.641982375657845106e-01 1.715911711368991677e+00 2.118434913822199839e+00 3.851605413698271363e-01 1.743920797302671577e+00 -3.743406184638635281e+00 1.047489625981774308e+00 -6.400587014086253079e-01 -3.709834773666040419e+00 -8.041228645745424064e-02 2.700728121510619917e-01 -1.360538945246850817e+00 3.068211812964785512e+00 -2.182573144364747364e+00 3.170998355201864460e-01 -1.517252323867026798e+00 2.698630101157585906e-02 -3.167012630751773639e+00 -3.400088293794968575e+00 6.679232913326969001e-01 -3.100403055646315131e+00 -2.201786485656600956e+00 1.497017226094417897e+00 7.886397314794881375e+00 2.653440388259390437e-01 -2.218012719048756409e+00 4.372317610259742082e+00 2.378341583233193113e+00 -2.307932945782583012e+00 2.684102852874849177e+00 1.802198969035616161e+00 1.105925149241196559e+00 -2.392604522089101238e+00 -1.817142221844236571e+00 3.017076680624977136e-01 -3.807572183097618357e+00 4.375094916124139033e+00 3.656306972526559118e+00 5.527264959088144636e+00 -1.029865226574938619e+00 1.593922626474228998e+00 -2.218740341303545804e+00 -9.145013608538254957e-01 1.061178180343972377e+00 -3.068276090549130863e+00 3.222015731007151107e+00 1.137575945993549942e+00 3.526194229411886649e+00 -2.295900181993122846e+00 3.226965619222422088e+00 -3.980540077247061159e+00 -3.683563239392386168e-01 8.336077638447929594e-01 2.979756086712684215e+00 -1.588650321895881401e+00 1.936776176048583542e-01 3.061444668884901077e+00 1.200576720403520259e+00 -2.361543022230026434e+00 -1.674529288346743749e+00 -7.677006141810606421e-02 1.469313587241547481e+00 -1.288588674213300589e+00 -5.934028939446126749e+00 -4.103527264471540370e-01 -6.039208150482878734e-01 3.860092625935238608e+00 2.447865246902534597e+00 -2.271081321125674179e+00 -8.440109623159283703e-02 4.896594384538672240e-01 1.289922048422961876e+00 -1.284156606217516261e+00 -1.466137760354209396e+00 1.724132043075757181e+00 -5.934050022493791987e-01 -1.946263547497965873e-01 -1.051293316312998244e-01 -2.928132958952526010e+00 2.419593394204050674e-01 -6.621131119285467825e+00 4.342799286645631501e-02 -8.377616384555305329e-01 3.050814699096194849e-01 -3.114686049108538954e-02 -8.507997036641530286e-01 -3.120008233092339545e-01 -1.126431241309405751e+00 -1.994541155548114286e+00 1.686215467401413592e+00 3.209865210683170211e+00 -3.376609492005953062e-01 9.224604684578112043e-03 1.069591344803774158e+00 -2.673710967258558391e+00 -6.630675055009074281e-01 1.714201927625403687e+00 -1.670307022386262608e-01 2.517205848011661473e+00 4.179549649028540537e-01 1.177545804822223374e+00 -2.073705428427918385e+00 -5.258333202614382529e-01 1.066860833020781385e+00 3.482225790616253924e+00 3.819960273373340653e-01 2.786978355288662001e+00 -3.162971370468809634e-02 -7.991791470073683623e-01 1.827039941392079925e+00 -9.557202617014989854e-02 -2.518369015177976067e+00 2.213908209622795997e+00 -9.474032565078778223e-01 -1.827793274680608038e+00 7.066507930111421976e-01 -1.926845546377555563e+00 5.407914854696267426e-01 4.515448878197396709e-01 3.140978152209185081e-01 6.958927822744200853e-01 1.229198243160843251e+00 -1.388308404346090819e-01 -5.127695440190775944e-01 -2.168541604812481705e+00 -2.885919555319860219e-01 -1.558588467028546365e+00 -4.567810941067190100e+00 -2.366620437172639146e+00 6.596068003597507223e-01 2.003496822819791134e+00 2.003540531577146400e+00 3.755908946124828507e-01 -1.637731656860684781e+00 2.660873962333768272e+00 5.559789930987596440e-01 -1.020820599126527561e+00 2.755302361723245275e-01 -1.913371936257408423e+00 8.302056798605590426e-01 -2.493512616201269683e-01 -3.624165609250482034e-01 6.536089304093120056e-01 -6.822865032201842483e-01 5.538593754773855071e-01 -1.704824085179746262e+00 -3.458191116277819610e+00 -1.680242280043363179e+00 -3.710968630253894229e+00 -2.299343403631337601e+00 1.767213451207423125e+00 -2.096717317844249084e+00 -1.036223565218386433e+00 -3.016153140293102997e+00 -6.762845195043474256e-01 6.003680644063483784e-01 9.766274458960234606e-01 -1.919907166812975241e+00 -1.312739048203557024e+00 5.353890830605638751e-01 -2.557051779657717017e+00 2.005033828416658837e-01 1.599524032284425079e+00 -2.064864432366713576e+00 -7.372680062072215490e-01 9.376968270510467607e-02 -2.897794967582843384e+00 3.602525146373744658e+00 -3.560746773431928691e-01 -8.733760481689590849e-01 -1.853310447224385316e+00 -1.252090833380628654e+00 1.622635680511659739e+00 1.540948641001467445e+00 -7.131094046861687907e-01 2.513825875516442654e+00 1.264211528905473392e-02 1.599561056173008033e+00 5.708760688907861258e+00 -3.268833980782321902e+00 -2.071846520688648899e-02 -7.748642224011877966e-01 -2.774613404943304218e+00 3.563608411486986594e+00 -1.591998926929939495e+00 1.416713954420013577e+00 -3.204417556854727983e-02 -5.364293514856099954e-01 -4.370141428364144431e+00 5.006488484942327455e-01 8.023071513719532977e-01 1.191446732323098612e+00 -1.547950269709043924e+00 4.134841760902597585e+00 1.210886844932523410e+00 3.736018890424985806e-02 -6.888279044238476700e-01 2.621144244560209557e+00 -3.052109506755248614e+00 -2.387115216386003491e-01 -3.079005819148741274e+00 -1.096418237406173501e+00 -1.736891914899332923e+00 8.825363752691918473e-02 5.485846026397988240e+00 2.795476880380474149e+00 2.614832699998165255e-01 -1.010267248218361225e+00 -2.510068979266622424e+00 -6.936875983327653650e+00 2.519327522515734774e+00 -2.146362238668592659e-01 3.266852174301784206e+00 2.255204243571683254e+00 -2.861311524929064820e+00 -5.033428506093174937e-01 -2.970932574154421690e+00 -5.323870627612958817e-01 1.383708186189658740e+00 -2.517528264374738090e+00 1.561253158565169441e+00 -1.036939360397656662e+00 -1.723716552770548471e+00 -2.167003056553590046e+00 2.120655832916503059e+00 3.564649708353382351e-01 -2.401193550019671719e+00 -1.243637559708195561e-01 2.718684707473353335e-01 6.961721069449514410e+00 2.575893853622392538e+00 2.709795888889395599e+00 2.235450970571327967e-01 2.584240169394474318e+00 5.653789470334319445e-01 7.841783014831746890e-01 3.082650101070788518e-02 -3.472059133655509000e-01 -9.614805617001969118e-01 1.606471667821151583e-01 -1.876241089774103088e+00 4.996522888265416129e-01 -1.421696752758469517e-01 1.691518625220247207e+00 -2.385685682910161365e-01 -2.361455604715316514e-01 7.906235434206572155e-01 -1.065213269978839916e+00 -3.426509466284979877e-01 -1.133548569668804129e+00 2.672390962786441282e+00 -2.632848421338496170e+00 2.627086578677773954e+00 -1.613809596850023231e+00 2.352255168402452412e+00 -3.097377895416682847e+00 3.388931762035304995e+00 1.325322542335688913e+00 1.498065722050260229e+00 1.687408459366864344e+00 -2.289922366648999841e-01 1.083060326937848261e+00 -1.361299991845500434e+00 -4.541525008614641923e-01 -2.453927908657994039e-01 -9.173804824118250156e-01 1.458671790377321642e+00 1.151229019129189179e+00 1.495070900840439032e+00 -1.290799308894107877e+00 8.339785169512972662e-02 8.097412396670057300e-01 4.581682557989603666e+00 -6.166734877824167071e-01 -1.950756807754047140e+00 -1.410080507715567311e-01 1.486393426953809049e+00 1.556758869867738815e+00 -4.460938401348442106e+00 2.236725209403390924e+00 5.795848073944417367e-01 2.539593987749504400e+00 -1.665537111407158655e+00 -1.082205177955716913e+00 1.708895684482521826e+00 2.667603568304395267e+00 -1.096199693619399174e+00 1.603221793156647812e-01 -3.031235746904583639e+00 -8.201248977525001926e-01 -2.755908627898790542e+00 -8.609499055633049736e-01 1.395263238972264119e+00 -1.072664841776834077e+00 -3.927710073563233095e-01 2.572952511362746275e+00 2.087666519747740868e+00 3.355079072353616132e-01 -1.556553695818507999e+00 1.384877524004070493e+00 4.447391771892479639e-02 -7.342659859079535278e-02 3.122013693723915684e-01 -1.139841088065882024e+00 8.862439063342347767e-01 2.263424061057774050e+00 1.054168324105599686e+00 -2.897582080223491396e-01 2.179735160460728682e+00 1.207005507279410361e+00 -4.700167228985854262e-01 -4.948251965084039306e+00 -7.405518194362596951e-01 -1.703895916861798698e-01 -3.170201313155980860e-01 -1.878628616367028936e+00 2.696803589320826866e+00 -3.223492058564396245e+00 2.162140071632354221e+00 -5.302571607264265907e-01 -1.172613914330568941e+00 8.667328312716925387e-01 1.180338537306862667e+00 -1.974577566291780162e+00 1.119059373715999728e+00 7.377431461107026855e-01 4.926964257590190077e-01 -1.408855119847606696e+00 1.238363712467823730e+00 -1.251761217928105463e+00 6.111558999422068705e-01 9.010796870218298338e-01 -1.982417374699220858e+00 1.283937548210067003e+00 1.889119746573548975e+00 1.063960114194441697e+00 1.551832121582831681e+00 -2.284035568364309654e+00 1.748247450060129715e-01 -2.094200207641282674e+00 -1.189324543598350603e+00 1.266894732386388389e+00 2.752447922757633947e+00 -1.242321669001476447e+00 8.010627373390262207e-01 -2.055737529610340619e+00 -2.463570574751154485e+00 -1.267613098669032601e+00 -8.125288299448973905e-01 5.244912557223735838e+00 -2.499926490677591318e+00 2.759812077040919021e-01 -7.780004542965687775e-02 -1.150308564121363064e+00 -3.187350572659335413e-01 -7.083698327268757311e-02 1.868618282491412597e+00 -9.450969767815647904e-01 8.255026175691744239e-01 -2.825046111841385876e+00 4.644319264161841154e+00 -1.589709102265218776e+00 -2.015686423915054704e+00 -2.812450790633734599e+00 1.199555478143440324e+00 -1.492983164900900106e-01 1.600620350763020339e+00 7.393912233733189732e-01 7.321376265351083878e-01 -2.443612641922242590e-01 3.387721800787587001e-01 9.539533994630121638e-01 5.299059480055632321e-01 1.038554013316413505e+00 2.834345278523804357e+00 6.523341773565739521e-01 -4.785188475351211390e-01 1.159872040230609969e+00 -2.213642871754617769e-01 -6.909778610650328945e-01 2.834988054367258314e+00 -3.838589459978663410e+00 2.074016531936149654e+00 -2.954579842476274809e+00 1.174808093949783805e+00 -2.369435795366967579e+00 -1.353939951327613800e+00 -4.024403615025041958e+00 -8.627291090979858357e-01 6.872970694750775156e-01 -2.439329183701464676e-01 3.009878105398966497e+00 -2.793750641575293847e-01 2.700399020278771434e-01 -1.402519406913848465e+00 1.277287646444028368e+00 3.295095230642481443e+00 -2.707257181418089242e+00 4.852497904795023409e+00 -5.553562718616212868e-01 1.695351111909257469e+00 -2.430263473205389047e-01 7.497059758883951597e-01 -7.421659581343416079e-01 -3.534409418911904410e+00 -2.089603589029573882e+00 -2.662488101031850185e+00 9.345215143843834671e-01 6.074987625032904903e-01 1.076658279537045626e+00 5.170900261284385596e-02 -1.738978108176847170e+00 -6.245652839000758405e+00 3.923066660870121458e-01 5.917808876702068233e+00 2.028130050023650544e+00 5.517627949422406530e+00 7.700331191617868498e-01 -1.177204876514855281e+00 1.366930194013483257e+00 -8.745983507128713974e-01 1.006490297362225173e+00 -1.087571584917546436e-01 4.469518173306867403e+00 -4.321414905664926920e+00 -4.842947284202645974e+00 -6.922058200363675473e-01 -5.100601152837500596e-01 1.905145948123220911e+00 -1.764275194271825775e+00 -2.048458221738391316e+00 6.401399482752380132e-01 -1.510245552952702575e+00 3.734378012251816426e+00 -4.987164071984724889e-01 7.904553932600096866e-01 1.801119619839288033e+00 5.109539336606235160e+00 -6.126241028127909161e+00 -1.728130108822041544e+00 3.278804719665981415e-01 -2.533832659309456781e-01 1.465077437322847675e+00 -1.096252658348899622e+00 -3.297275526303478088e+00 8.796999340271977053e-01 2.151345551227723973e+00 -1.724248771168928607e-01 -3.979116714419316803e-01 1.320597368555289419e+00 4.567498294896933930e-01 -6.137686551906789134e-01 -1.285470440041536211e+00 1.429824010523102817e+00 -1.131720515170020702e+00 -1.369687959492238649e+00 -1.841305965572036796e-01 -5.660962848747267406e-01 -3.696917550315987344e-01 6.013003464896942152e-01 -6.361583375905459636e-01 3.412339087150528805e+00 3.804765052434085915e-01 -2.150237919894284033e+00 1.903141001712318703e+00 -3.512070644358838978e-01 -3.772693108949101704e-01 8.425865710468341541e-02 3.416792238193978815e+00 1.090602401574600977e+00 -2.560018318730425957e+00 -1.405156844754709367e+00 -1.498901330646750463e+00 -2.792609071677319421e-01 -2.235291562162151191e+00 -2.067950784856642521e+00 1.765948468347505740e+00 -7.233789057818658108e-01 -9.005032456454200446e-03 -9.862937661402233491e-01 -2.025946154817930722e+00 1.417660634682252674e+00 -9.951440181735737855e-01 -6.827210196903592543e-01 -5.686149377397171634e-01 4.033449785135478471e+00 1.576284857329849132e+00 -3.839942888794640324e-02 -6.724967700140412896e-01 -4.724443587041428083e-01 4.609741523328735324e-01 3.723590176715957933e-01 -9.986551169408574014e-01 3.006458023691116477e-01 1.769416372578109131e+00 1.613624477407108555e-03 -1.242231166162718115e+00 2.893519222672186864e+00 8.655064149623821201e-01 1.939916521709363018e+00 -2.007059857875225894e+00 4.978160067969620295e-01 -2.779198710700168107e+00 -1.030074000168892390e+00 6.693543674705630941e-01 -6.875582935778571381e-01 -1.387984445320990072e-02 -3.270176096743454330e+00 1.582911619165523254e+00 7.880550111502148125e-01 -1.169722451476375102e+00 -1.385794893687848361e+00 -1.994980814225036925e-01 -1.570524043110476331e+00 6.363583694330289253e-01 -4.904641938098717180e-01 -1.451766835156600433e+00 -6.173630577072741071e-02 4.057028345735397501e+00 1.189277749516947091e+00 -3.309140654152964878e+00 -1.672484746943885048e+00 2.953127683290743821e+00 -1.901853393142711957e+00 -4.511445670244364159e+00 2.009747689342213484e+00 -2.191498472616613125e+00 3.027628488871119683e-01 9.666988731076945340e-01 -1.434043705380209976e+00 -1.136007572935521903e+00 -2.153371066465616379e-01 -9.985646141020990685e-01 1.554373914378186505e+00 -6.338449616189211433e+00 9.418311612761433027e-01 -1.516182744863519449e+00 -8.742651357156246972e-01 -1.163862906887447757e+00 2.059798330278945766e+00 -9.673879288118772402e-02 7.301990145912509167e-01 7.691723137522331610e-01 7.899458005713193565e-01 -1.327991347637710096e+00 -5.051806753009213669e-02 -3.247060334750821120e+00 -8.437898474257801706e-02 -1.341208875861825023e+00 -3.283641479332804369e+00 -7.537863169426416432e-01 3.302957664759611944e+00 -3.081358892956457485e+00 -7.433070138116412151e-01 -3.586682521604963370e+00 -1.998477000592752351e+00 2.454571712942797745e+00 -1.431008774957757357e+00 -6.620364930480071575e-01 8.684133044368188559e-01 2.987823180658370603e+00 2.686843649071337214e+00 5.452163543759644959e-01 -2.795242395752782105e+00 -2.608349405730750359e+00 8.049024231174835009e-01 1.439718130526222550e+00 2.274247892040866414e+00 -5.680174647377096875e+00 -6.554297858186487469e-01 1.443712596727783737e+00 1.921919826533998510e+00 -1.328500940326400537e+00 2.802440970978792856e-01 -6.679520876904836146e-02 -2.145523544748053624e+00 4.047783172223828885e+00 1.303823490144511599e+00 1.181159747724459530e+00 1.011990915920167655e+00 -4.474522054692988693e-01 3.763564663530703847e+00 -2.564185048858032889e+00 -9.890690151219206916e-01 -1.892409730450684391e+00 -9.100826625955847904e-01 -2.225440636695711127e+00 4.629209918075272157e+00 -3.598737911104112897e+00 3.871675446634281204e-01 5.140972618013164297e-01 -2.738670922439376820e+00 1.866042036910848578e+00 -1.049916747566657094e+00 6.564156496963048149e+00 -4.124830912806307204e+00 4.508234362130467687e-01 9.236987118426411847e-01 -1.120785612521179919e+00 -4.239502637499188431e-01 1.050033475659828408e-01 1.435768401523366267e+00 -3.357573042626217363e-01 -2.282592665150924294e+00 1.845749860643340901e+00 6.400854408837129972e-01 -5.154939365760409231e+00 4.255366345315635179e+00 5.928748407336981607e+00 1.964108033353600069e+00 3.912170324771888641e-01 2.304744263378375901e+00 -2.431374189862876845e-01 2.694998674752408174e+00 1.552819425278377352e+00 3.991275976494768507e+00 -1.848127102822771484e+00 -4.420033175112374479e+00 4.986716699997681412e-01 -4.930599797760766290e-01 1.560114673991243595e-01 7.024408683468554015e-02 -2.083920936352765096e+00 7.335702453349988161e-01 -3.336865376053501087e-01 -1.765792659483052196e+00 -1.025790027727439879e+00 -7.180978594520470715e-01 4.836224877321465554e-01 1.431461803372223729e+00 -2.485720116095906818e+00 8.854442931849780818e-01 2.309248322268627529e+00 1.076579089553132196e+00 -1.223329442599770278e+00 2.774389718949782591e+00 5.184496255925126196e-01 1.314945569118966207e+00 -1.643445676998654070e+00 2.700289491275047027e+00 -3.982117192056561006e+00 3.441074252676974421e+00 -2.066233287802933472e+00 1.498333631021811829e+00 -2.285939727522958265e+00 2.372444500535007550e-01 -6.802589310995926786e-01 4.060065333040548952e-01 -1.334176908134437678e+00 -2.230843553325449063e-02 3.658693984898810481e+00 2.044445243592539541e+00 -1.562570591933913011e+00 3.287505847703650730e+00 3.546646842529920240e-01 -2.768055034457373331e+00 1.042542308869877088e+00 -9.318912756329694735e-01 7.913953886534769167e-01 -3.215689274045538948e+00 2.022275647641470775e-01 -1.006731466858689084e+00 -4.840548444754874780e+00 1.340269908909707264e-01 1.465762379261632109e+00 -4.950023969529273593e+00 4.121139322582181297e-01 5.034503227303430695e-01 2.621476431116106731e+00 3.659025143013357795e+00 3.877162181234005134e-01 -8.278140395022351994e-01 -7.055313346021825638e-02 1.619110697786157571e+00 2.277896801948986027e+00 1.703799757595617637e+00 -2.315436968089402914e+00 3.350436173881178537e+00 7.310593057801298977e-01 4.952680433535101012e-01 2.115341876463499471e+00 -1.961645944762833604e+00 -1.071650798606200938e+00 -2.692851803435271307e+00