
265 atoms
2 atom types
   0.0000000000   15.9770000000 xlo xhi
   0.0000000000   15.9770000000 ylo yhi
   0.0000000000   15.9770000000 zlo zhi
   0.0000000000    0.0000000000    0.0000000000 xy xz yz

Atoms # atomic

     1      1   15.2921000000   15.3456000000   10.4222000000
     2      1    1.2440100000   11.9195000000    4.9968000000
     3      1    4.3745700000   10.9647000000    7.9926200000
     4      1   13.6535000000    8.1752400000    0.9403180000
     5      1   13.3445000000   13.8266000000    6.7120000000
     6      1   13.2292000000    3.5360400000    4.5412400000
     7      1    2.6896500000    5.7703000000    1.4774700000
     8      1    7.1835600000    6.9900200000    2.1045300000
     9      1    5.7233200000    0.8319130000    2.4858700000
    10      1    1.8045700000   13.9010000000    1.0517000000
    11      1    2.2203700000    9.3724400000    7.6293000000
    12      1    7.4091900000    2.2382100000    7.5078400000
    13      1   10.6488000000    2.1958100000    0.9338800000
    14      1    9.2712100000    0.3488330000   15.7999000000
    15      1    9.2721900000   15.1206000000    7.0216200000
    16      1    0.0742790000    5.2913400000   11.8617000000
    17      1   14.4399000000    9.3038600000    4.8372200000
    18      1    6.7677100000    4.7760500000    1.6007000000
    19      1   14.9404000000    7.0719400000    7.1185300000
    20      1   11.2566000000   14.7115000000    8.3247000000
    21      1    5.2902700000    3.8092200000    7.5056700000
    22      1    6.8504300000    6.8429500000   10.2736000000
    23      1   13.8176000000   14.5625000000   14.9812000000
    24      1   12.3037000000   15.4868000000    3.6085000000
    25      1    7.2034000000    6.9089100000   12.7785000000
    26      1   10.7969000000    9.3571500000    5.7553300000
    27      1   11.6614000000    9.3490900000    8.0773000000
    28      1   13.5084000000   12.0176000000    5.1678500000
    29      1    8.4482000000    6.8976900000    4.1597900000
    30      1    6.8168000000    0.8000230000    0.0229390000
    31      1    7.8635100000    8.9361000000   14.4915000000
    32      1   14.1674000000    2.2916700000   14.5627000000
    33      1    8.2967000000    2.4169000000   11.2027000000
    34      1   13.6724000000   11.6568000000    3.0102800000
    35      1   11.1544000000   14.2980000000   15.1641000000
    36      1   12.8600000000    5.9557800000   15.8612000000
    37      1   15.0146000000   10.1406000000    1.2519900000
    38      1    3.6637200000    4.7034700000   15.2264000000
    39      1   12.9347000000    7.6726700000    3.4617800000
    40      1   14.8385000000    4.0242400000    9.9092100000
    41      1    8.7361300000    1.1756400000    5.3951800000
    42      1   15.9287000000    1.6359200000    9.4589500000
    43      1    4.7002000000   14.4196000000    3.3339000000
    44      1   10.5618000000    5.4608600000    0.9284640000
    45      1   14.3229000000    7.0868200000   11.5253000000
    46      1   13.8153000000    0.3451110000   12.6199000000
    47      1   12.2357000000    7.5923100000   12.6858000000
    48      1    8.2356800000   11.9552000000   10.6499000000
    49      1    5.5517800000   14.9875000000    9.6488100000
    50      1   10.9850000000    2.3641000000   10.6970000000
    51      1    1.2311600000    3.7567200000    1.9012900000
    52      1   15.4417000000    2.2113500000    0.9909990000
    53      1   10.7939000000    6.1941300000   11.0410000000
    54      1   10.4861000000    6.6647700000    5.6738500000
    55      1    8.5450200000   12.4525000000    6.8190800000
    56      1    2.5894500000   13.8001000000    3.6115200000
    57      1    1.9934600000   14.1638000000   14.5542000000
    58      1    3.1648000000    0.1953420000   13.4635000000
    59      1   15.6212000000   12.9740000000   13.9537000000
    60      1    6.7268700000    8.5782200000    5.6258300000
    61      1   15.2152000000   12.7505000000    9.3756200000
    62      1   12.8301000000    9.7890000000   13.6109000000
    63      1   12.1888000000    5.4352500000    3.0719900000
    64      1   11.2794000000   11.8190000000   13.6910000000
    65      1    2.4180500000    1.2865300000    8.7026000000
    66      1    4.6646700000    2.1457800000   14.8693000000
    67      1    0.9053320000   11.4513000000    7.6259800000
    68      1    7.6857800000    4.2475100000   13.2482000000
    69      1    4.5429100000   11.8736000000    2.8526700000
    70      1    3.0420000000    4.6385400000    6.2687900000
    71      1   12.7168000000    5.4972800000    6.2856400000
    72      1    1.3359700000    9.3165900000    0.2965170000
    73      1   15.6112000000   15.4583000000    6.4473200000
    74      1   14.6991000000    8.5112100000    9.1406700000
    75      1   12.3799000000    4.2996100000   10.1943000000
    76      1   11.4598000000   15.7698000000   11.6705000000
    77      1    7.6493400000    7.9355400000    8.0026100000
    78      1    1.5161200000    6.8723500000    7.1756000000
    79      1   10.1289000000    7.7095200000    9.0933100000
    80      1    2.1692500000   15.5135000000    7.2761800000
    81      1    4.6603800000    9.6443800000    4.2131300000
    82      1    4.4703300000    0.1476920000   11.4581000000
    83      1    5.2673900000    3.3790800000    3.2346600000
    84      1   10.2551000000   13.8138000000   10.6192000000
    85      1    5.9622700000    4.5487400000    9.7099200000
    86      1   10.2458000000   11.6515000000    4.8313200000
    87      1   12.5447000000    3.5227900000   15.6215000000
    88      1    3.7437100000   10.3444000000    0.9094070000
    89      1    1.9364800000    5.8572800000   13.5248000000
    90      1    6.3282100000    8.9579800000    0.8013270000
    91      1   13.5574000000   10.7742000000    9.1688400000
    92      1    4.5685700000    2.3095600000   10.1292000000
    93      1   13.8901000000    0.9558610000    4.9737000000
    94      1    3.9216800000   13.5002000000    8.1604400000
    95      1    0.9414830000    9.4284400000    4.3036600000
    96      1    6.7976900000   11.6590000000    8.4231600000
    97      1    8.9408400000   10.7805000000   12.9939000000
    98      1   11.5844000000   13.1301000000    3.2694700000
    99      1   15.6358000000   15.7314000000    0.5664130000
   100      1    1.1638800000    8.3282500000   13.9556000000
   101      1   15.4923000000   10.1353000000   13.6117000000
   102      1   10.2204000000    1.3816000000    3.3373700000
   103      1    8.3291400000    4.2990800000   15.7874000000
   104      1    2.8462700000    7.8007100000    3.3839200000
   105      1    7.5071400000    0.6961790000    9.6375000000
   106      1    2.7377500000    3.7544400000    3.7792700000
   107      2    4.7457000000    1.3861700000   11.2709000000
   108      2    6.8489900000   15.4882000000    9.3443100000
   109      2   12.9761000000    3.0495700000   14.3615000000
   110      2   13.1745000000    4.2058600000    5.8039800000
   111      2   15.6005000000   11.5320000000   13.9125000000
   112      2   15.6416000000    0.3425390000    9.5563700000
   113      2    5.9421600000    1.6552200000   15.1070000000
   114      2   11.0144000000    6.8900500000   12.1905000000
   115      2    6.8238000000    7.5640800000   11.5380000000
   116      2    0.5112000000    9.7767900000    1.2500300000
   117      2    5.0951800000    9.5621000000    1.3064500000
   118      2   13.7897000000    6.8300200000    0.1026960000
   119      2   10.8224000000    9.6019900000    7.1364600000
   120      2    9.3444200000   12.9696000000   10.4166000000
   121      2    8.2355600000    3.6952200000   14.4500000000
   122      2   14.8457000000    2.6040100000   15.7609000000
   123      2    7.7030300000    1.0938200000   10.9371000000
   124      2    1.6201400000    4.9617700000    1.4013300000
   125      2    3.7233000000    1.5172500000   14.1666000000
   126      2   11.3955000000    5.6497400000    6.3978600000
   127      2    8.0806400000    6.4635200000    2.9685400000
   128      2    9.2502500000   11.8564000000    5.7169100000
   129      2    7.0757900000    8.1794400000    1.7418700000
   130      2    7.0701000000    5.5578300000   13.2344000000
   131      2    9.8082000000    1.5948600000    0.1051410000
   132      2    1.9520800000    7.2492700000   13.5593000000
   133      2    0.2244040000    6.3856300000    6.9997100000
   134      2   13.2301000000    4.6922100000   15.9013000000
   135      2    0.3137290000   12.2285000000    8.6839200000
   136      2    4.8582500000   10.9691000000    3.9652800000
   137      2    7.3586200000   11.8155000000    7.2041700000
   138      2   10.0953000000   15.6352000000    7.9612200000
   139      2   14.1428000000    9.4684400000    0.4041760000
   140      2    9.2379900000    5.1701300000    0.5738010000
   141      2    7.8380000000    1.7392500000    8.7118100000
   142      2    0.0500050000    3.1012400000    1.8181200000
   143      2   13.0198000000    4.0006300000    3.1138600000
   144      2   14.1926000000   12.5944000000    4.1374400000
   145      2   15.8006000000    4.3739400000   10.8413000000
   146      2    9.9879700000   15.0978000000   15.4639000000
   147      2   15.1214000000    8.3280400000    7.8165200000
   148      2    7.5450100000    7.9198800000    4.6183300000
   149      2    0.7534480000   14.8069000000    1.0468200000
   150      2    5.1925900000    3.5515900000   10.0940000000
   151      2   14.7082000000   15.3030000000   15.6868000000
   152      2    5.2823900000   13.1015000000    3.0558900000
   153      2    2.5081200000   15.3831000000   14.5283000000
   154      2    8.3232400000    2.0064400000    6.3462100000
   155      2    6.3851400000    6.0187700000    1.2539100000
   156      2   13.5294000000    7.0048100000   12.6281000000
   157      2    3.3833700000   15.6640000000   12.1967000000
   158      2   15.3955000000    0.9651030000    1.1544000000
   159      2   12.4159000000   14.7774000000   15.2721000000
   160      2    3.1445300000    5.1118700000   14.0103000000
   161      2    4.1789500000    4.0365700000    6.7683300000
   162      2   12.4235000000   15.8814000000   12.6931000000
   163      2   13.6345000000    2.2099700000    4.6540000000
   164      2    2.1412200000   13.2902000000   15.7136000000
   165      2    7.5242300000   11.8401000000    9.5494700000
   166      2    5.4937100000   15.4247000000    2.5861500000
   167      2   10.6855000000    2.0382300000    2.3098400000
   168      2    2.8734800000   14.3397000000    7.7480400000
   169      2   14.5989000000   15.6876000000   11.6397000000
   170      2    6.4601700000    5.5629400000   10.4511000000
   171      2   15.6126000000    6.5501600000   11.8159000000
   172      2   15.3342000000   13.8897000000   10.2788000000
   173      2    5.4967300000    2.0199800000    3.3726600000
   174      2    9.3386500000    6.2159800000    5.1155200000
   175      2   10.5819000000   14.7264000000   11.6417000000
   176      2   13.6836000000    6.5064000000    6.8159700000
   177      2    6.3298300000    1.0358200000    1.2463100000
   178      2    0.5883560000    9.3079200000   13.2179000000
   179      2    6.9178600000    7.3664000000    9.0182400000
   180      2   11.5367000000    5.0059700000   10.9336000000
   181      2   12.5145000000    6.3880800000    3.9502800000
   182      2    1.5821900000    8.2303100000    3.9268600000
   183      2   11.5020000000    1.0806500000   11.0494000000
   184      2   11.9009000000   14.3174000000    2.7999000000
   185      2    7.9525900000    7.7814700000   13.7036000000
   186      2   10.3153000000   11.3111000000   12.8164000000
   187      2    1.1287700000    5.0232000000   12.8681000000
   188      2    0.7731210000    8.5153100000   15.3631000000
   189      2   11.1234000000    5.3433800000    2.1773500000
   190      2    3.6503400000    1.7620100000    9.2022700000
   191      2    9.0644700000    8.0193300000    8.1964800000
   192      2    5.1504200000   14.1527000000    8.5139100000
   193      2    2.7986200000    0.5969110000    7.4761400000
   194      2   10.7915000000    7.9299300000    5.3772500000
   195      2   11.1570000000    0.3962730000    3.8589400000
   196      2   14.2855000000   13.4993000000   14.1392000000
   197      2    4.7191400000    3.5962700000   15.2529000000
   198      2   11.2164000000   13.9204000000    9.4075600000
   199      2    2.8869100000    6.6059400000    2.6872900000
   200      2   13.1071000000    8.0210400000    2.1712800000
   201      2    1.0125900000    9.9675100000    7.7995200000
   202      2    5.0219900000   15.0594000000   10.8054000000
   203      2   13.8697000000   12.1179000000    9.2867400000
   204      2    1.5734700000   10.5720000000    4.5689300000
   205      2   14.6578000000   14.1745000000    6.7495900000
   206      2    3.9015300000    8.5795400000    3.4077100000
   207      2    4.1308100000    4.0598800000    3.4937500000
   208      2   14.2864000000    9.7971800000    9.6856100000
   209      2    2.4906300000   13.6653000000    2.1782600000
   210      2    9.1125500000    1.5479000000    4.1327800000
   211      2    6.9873600000    9.3201300000   15.5639000000
   212      2   13.6269000000    4.7624300000    9.8935000000
   213      2   11.3732000000    8.0799900000    8.7788900000
   214      2    9.0608100000   13.6874000000    7.0979800000
   215      2   11.8348000000    3.0974400000    9.9044200000
   216      2   10.6862000000   10.2823000000    4.7639200000
   217      2    0.8366470000   13.6889000000   13.8005000000
   218      2    1.4895400000    1.9498600000    9.3975000000
   219      2    2.2129200000    7.9644200000    7.1619000000
   220      2    3.5101200000    9.7656900000    7.7687200000
   221      2    2.6040700000    4.0357400000    5.0982600000
   222      2   12.3893000000   14.4431000000    7.5855600000
   223      2   13.7780000000   10.6047000000    5.0735700000
   224      2    8.7743500000   15.6839000000    5.7221400000
   225      2    7.9849500000   11.3550000000   11.8596000000
   226      2    5.5216700000    8.9486400000    5.1599400000
   227      2    3.6626400000   12.1334000000    7.9112000000
   228      2   11.0276000000   13.0937000000   14.4293000000
   229      2   15.6977000000    9.0362500000    4.9137700000
   230      2    0.7571300000   12.1907000000    6.4172600000
   231      2    2.5400100000    9.9420600000    0.5708940000
   232      2   14.3299000000    1.5312700000   13.3428000000
   233      2    7.0218400000    8.6709100000    6.9700500000
   234      2   13.9991000000    7.4584400000   10.1884000000
   235      2   13.7161000000    8.2329800000    4.4831300000
   236      2    1.5822200000   13.1096000000    4.4575900000
   237      2    1.8831900000    3.2146100000    2.9197200000
   238      2   10.7637000000   12.8134000000    4.3013300000
   239      2    8.3393400000   10.0183000000   13.8328000000
   240      2    9.6594300000    2.4630600000   10.7966000000
   241      2    6.3371800000    4.3087100000    2.8821200000
   242      2   11.5610000000    6.3710700000    0.0829490000
   243      2   15.0320000000    2.6825600000    9.5130700000
   244      2    6.2011200000    2.8606700000    7.1767100000
   245      2   12.8850000000   12.6620000000    6.2054500000
   246      2    1.0057900000   15.2588000000    6.3262700000
   247      2    3.5080100000    5.5723300000    0.3603260000
   248      2   14.1017000000    9.6380400000   13.5474000000
   249      2   12.0877000000    8.6697000000   13.3444000000
   250      2   14.4667000000   10.7111000000    2.4489500000
   251      2    9.9344200000    6.6433300000   10.0128000000
   252      2   12.1824000000   11.9088000000    2.7515200000
   253      2    4.0181800000   11.5307000000    1.6060300000
   254      2   11.6172000000    2.9722400000    0.2557770000
   255      2    2.4281900000    5.5847400000    7.0614100000
   256      2   12.4714000000   10.3532000000    8.4326200000
   257      2    7.8949700000    0.1891000000   15.5812000000
   258      2    7.3959700000    3.9783600000    0.7313710000
   259      2   12.2008000000   10.9605000000   14.0031000000
   260      2   14.8723000000    0.6062780000    6.0107200000
   261      2    5.9714700000    4.8524300000    8.2821900000
   262      2   13.4697000000   15.7978000000    4.2524000000
   263      2    5.6212000000   10.7304000000    8.4134200000
   264      2    3.6439700000   14.6789000000    4.1535100000
   265      2    7.7421200000    3.5366600000   11.9565000000
