1.463090000000000046e+01 2.757219999999999782e+00 8.586339999999999861e+00 1.609069999999999823e+01 2.978009999999999824e+00 1.027399999999999913e+01 1.635360000000000014e+01 1.039990000000000059e+01 7.975909999999999833e+00 9.900870000000000504e-01 1.040440000000000076e+01 8.317529999999999646e+00 1.692200000000000060e+01 1.544669999999999987e+01 9.305270000000000152e+00 1.600700000000000145e+01 1.755090000000000039e+00 1.232160000000000011e+01 6.593149999999999844e-01 1.801539999999999919e+00 5.662989999999999746e+00 8.934360000000000079e-01 4.006020000000000358e+00 6.799389999999999823e+00 1.310310000000000086e-01 4.156629999999999825e+00 9.016489999999999227e+00 1.479659999999999975e+01 3.150259999999999838e+00 1.407980000000000054e+01 1.513810000000000100e+00 5.716599999999999682e+00 5.115730000000000111e+00 2.660579999999999945e+00 3.479350000000000165e+00 9.654669999999999419e+00 1.391129999999999978e+00 6.947470000000000034e+00 2.649070000000000036e+00 2.772879999999999789e-01 7.887970000000000148e+00 5.676429999999999865e+00 2.135139999999999816e+00 9.470480000000000231e+00 4.902429999999999843e+00 3.048639999999999795e+00 9.613530000000000797e+00 7.157000000000000028e+00 1.732789999999999964e+01 1.173129999999999917e+01 1.014080000000000048e+01 4.865929999999999644e+00 1.488790000000000013e+01 2.560639999999999805e+00 5.279320000000000235e+00 8.135830000000000339e+00 7.923750000000000071e+00 6.297180000000000000e-01 8.672959999999999781e+00 1.558649999999999913e+01 3.733779999999999877e+00 1.675769999999999982e+01 2.822140000000000093e+00 2.449269999999999836e+00 1.746209999999999951e+01 4.974050000000000082e+00 2.246760000000000090e+00 1.585330000000000084e+01 6.964220000000000077e+00 1.689649999999999963e+01 1.977980000000000160e+01 1.289409999999999989e+01 1.631569999999999965e+00 1.988639999999999830e+01 4.668580000000000396e+00 1.284429999999999961e+00 1.560519999999999996e+01 9.240569999999999951e+00 6.903359999999999497e-01 1.626139999999999919e+00 3.176099999999999923e+00 4.646370000000000111e+00 1.873310000000000031e+01 1.421909999999999918e+01 4.650330000000000297e+00 1.938790000000000013e+00 5.480209999999999582e+00 4.516510000000000247e+00 4.354370000000000296e+00 6.341249999999999609e+00 4.734740000000000393e+00 4.341459999999999653e+00 8.469079999999999941e+00 2.892110000000000181e+00 2.661059999999999981e+00 1.205680000000000085e+01 2.150749999999999940e+00 2.172969999999999846e+00 1.405439999999999934e+01 5.693450000000000344e+00 5.139330000000000176e+00 3.745740000000000069e+00 3.835210000000000008e+00 9.184980000000000366e-01 1.354889999999999972e+01 6.085429999999999673e+00 2.454390000000000072e+00 9.603400000000000603e+00 1.177859999999999907e+00 3.494790000000000063e+00 1.836830000000000129e-01 5.600550000000000139e+00 4.607779999999999987e+00 1.528609999999999935e+01 6.814029999999999809e+00 4.729720000000000368e+00 1.754029999999999978e+00 7.786979999999999791e+00 6.206719999999999793e+00 3.469230000000000036e+00 8.389810000000000656e+00 7.972839999999999705e+00 4.853449999999999598e+00 7.920379999999999754e+00 8.004569999999999297e+00 7.380550000000000388e+00 4.443819999999999659e+00 8.347139999999999560e+00 1.050159999999999982e+01 4.159639999999999560e+00 1.016159999999999997e+01 1.212860000000000049e+01 6.358559999999999768e+00 8.823479999999999990e+00 3.369159999999999933e+00 2.918050000000000033e+00 8.249330000000000496e+00 1.206550000000000011e+01 3.430660000000000043e+00 4.899820000000000064e+00 3.126510000000000122e-01 9.425390000000000157e+00 9.642580000000000595e+00 8.319919999999999760e+00 5.028450000000000308e+00 1.248729999999999940e+01 1.291709999999999958e+01 7.553160000000000096e+00 1.210529999999999973e+01 1.601720000000000033e+00 5.798219999999999708e+00 1.018459999999999965e+01 1.835269999999999957e+00 4.015889999999999738e+00 9.605769999999999698e+00 3.351430000000000131e+00 4.740739999999999732e+00 1.363109999999999999e+01 4.685069999999999624e+00 6.134170000000000122e+00 1.410019999999999918e+01 6.658570000000000100e+00 3.725550000000000139e+00 1.571110000000000007e+01 1.048850000000000016e+01 4.405450000000000088e+00 1.672370000000000090e+01 1.251870000000000083e+01 3.747349999999999959e+00 1.380070000000000086e+01 6.844000000000000306e+00 5.299649999999999750e+00 1.467650000000000077e+01 1.182869999999999955e+01 1.016169999999999973e+01 1.193740000000000023e+01 1.908989999999999965e+00 8.229419999999999291e+00 1.383610000000000007e+01 7.926099999999999923e+00 7.216549999999999798e+00 1.809240000000000137e+01 2.035670000000000091e+00 8.019330000000000069e+00 1.788939999999999841e+01 4.185270000000000046e+00 5.463359999999999772e+00 1.900359999999999872e+01 7.371670000000000167e-01 8.680519999999999570e+00 1.461240000000000094e+00 1.336570000000000036e+01 7.503519999999999968e+00 1.902339999999999876e+01 6.866839999999999833e+00 7.765550000000000175e+00 1.824540000000000006e+01 9.183510000000000062e+00 6.743879999999999875e+00 2.277609999999999912e-01 8.368249999999999744e+00 9.119699999999999918e+00 1.787610000000000099e+01 1.084200000000000053e+01 9.107369999999999521e+00 6.266119999999999912e+00 1.409639999999999915e+01 1.196320000000000050e+01 4.934660000000000046e+00 5.277730000000000032e+00 7.366970000000000240e+00 3.050149999999999917e+00 1.195819999999999972e+01 1.342270000000000074e+01 3.999210000000000154e+00 7.212229999999999919e+00 1.039400000000000013e+01 6.716980000000000395e+00 3.845129999999999937e-01 9.874489999999999768e+00 4.324580000000000091e+00 1.303479999999999972e+00 1.095110000000000028e+01 4.243059999999999832e+00 3.302989999999999871e+00 1.197780000000000022e+01 1.018369999999999997e+01 2.713509999999999867e+00 1.253369999999999962e+01 1.022320000000000029e+01 5.418129999999999669e+00 1.188250000000000028e+01 9.297959999999999781e+00 7.931359999999999744e+00 1.006269999999999953e+01 1.216310000000000002e+01 1.089400000000000013e+01 9.949270000000000280e+00 1.212540000000000084e+01 1.336999999999999922e+01 1.174419999999999931e+01 1.228340000000000032e+01 5.863389999999999880e+00 1.075169999999999959e+01 1.029049999999999976e+01 1.245770000000000088e+01 7.053009999999999557e+00 5.160400000000000098e+00 1.360810000000000031e+01 1.419180000000000064e+01 1.017249999999999943e+01 8.918910000000000338e+00 9.005610000000000781e+00 1.421240000000000059e+01 1.476939999999999920e+01 1.019340000000000046e+01 1.437989999999999924e+01 2.973990000000000133e+00 1.200469999999999970e+01 1.467960000000000065e+01 4.934940000000000104e+00 9.654629999999999157e+00 1.429139999999999944e+01 9.731799999999999784e+00 1.597489999999999988e+01 1.583539999999999992e+01 7.049240000000000173e+00 1.109549999999999947e+01 1.631599999999999895e+01 1.057280000000000086e+01 9.727220000000000866e+00 1.188889999999999958e+01 7.223880000000000301e+00 8.758010000000000517e+00 1.900390000000000157e+01 1.304840000000000089e+01 1.063069999999999915e+01 1.775529999999999831e+01 3.870200000000000085e+00 9.639239999999999142e+00 1.672200000000000131e+01 1.382130000000000081e+01 8.422890000000000654e+00 1.424980000000000047e+01 1.538899999999999935e+00 1.477410000000000068e+01 1.659750000000000014e+01 9.003420000000000201e+00 1.150150000000000006e+01 1.923410000000000153e+01 1.606959999999999944e+00 1.261679999999999957e+01 1.709750000000000014e+01 5.233789999999999942e+00 8.925480000000000302e+00 1.988970000000000127e+01 1.472560000000000091e+00 1.232970000000000077e+01 1.108829999999999982e+00 1.382010000000000005e+01 1.475580000000000069e+01 2.417069999999999830e+00 6.232590000000000074e+00 1.296829999999999927e+01 5.528159999999999741e+00 3.165129999999999999e+00 1.129110000000000014e+01 5.782169999999999810e+00 1.304299999999999926e+01 1.334750000000000014e+01 6.222900000000000098e+00 1.356550000000000011e+01 1.453480000000000061e+01 7.320710000000000051e+00 3.037770000000000081e+00 1.244330000000000069e+01 3.402639999999999887e+00 1.370190000000000019e+01 1.255860000000000021e+01 7.599809999999999732e+00 1.565889999999999915e+01 1.378379999999999939e+01 9.627990000000000492e+00 1.030359999999999943e+00 1.687859999999999872e+01 8.041399999999999437e+00 1.821769999999999889e+00 1.582360000000000078e+01 8.305229999999999890e+00 5.068019999999999747e+00 1.576660000000000039e+01 1.105419999999999980e+01 5.555589999999999584e+00 1.481639999999999979e+01 1.234880000000000067e+01 9.959609999999999630e+00 1.365310000000000024e+01 1.251549999999999940e+01 1.203819999999999979e+01 1.595829999999999949e+01 1.225990000000000002e+01 3.397130000000000205e+00 1.321899999999999942e+01 1.005419999999999980e+01 1.227640000000000065e+01 8.747899999999999565e+00 2.720650000000000013e+00 1.561800000000000033e+01 1.372569999999999979e+01 1.453170000000000073e+01 1.406250000000000000e+01 3.685229999999999784e+00 1.552880000000000038e+01 8.892619999999999969e-01 1.541210000000000058e+01 1.410539999999999949e+01 2.209039999999999893e-01 1.579659999999999975e+01 1.471669999999999945e+01 2.584499999999999797e+00 1.600469999999999970e+01 1.628180000000000049e+01 4.458529999999999660e+00 1.318779999999999930e+01 1.730940000000000012e+01 1.102779999999999916e+01 1.313760000000000083e+01 1.875919999999999987e+01 1.308750000000000036e+01 1.449249999999999972e+01 1.826599999999999824e+01 4.456190000000000317e+00 1.216929999999999978e+01 1.670720000000000027e+01 1.408440000000000047e+01 1.563610000000000078e+01 1.158249999999999957e+01 9.335280000000000244e-01 1.477919999999999945e+01 1.156400000000000095e+00 1.436439999999999939e+00 1.430649999999999977e+01 6.640960000000000196e-01 3.939229999999999787e+00 1.285219999999999985e+01 6.782340000000000035e-01 2.540549999999999753e-01 1.554470000000000063e+01 8.962180000000000035e+00 1.295570000000000022e+01 1.699500000000000099e+01 4.306300000000000239e+00 1.510040000000000049e+01 1.584539999999999971e+01 6.441309999999999647e+00 1.383050000000000068e+01 1.122000000000000108e+00 9.010160000000000835e+00 1.324060000000000059e+01 3.258000000000000007e+00 7.433589999999999698e+00 7.182279999999999776e-01 1.722899999999999920e+01 1.290160000000000018e+01 1.228570000000000029e+01 1.748549999999999827e+01 1.085769999999999946e+01 1.316629999999999967e+01 2.958600000000000119e+00 9.796730000000000160e+00 1.577800000000000047e+01 4.759959999999999747e-01 1.514869999999999983e+01 1.338069999999999915e+01 3.989020000000000010e+00 1.202490000000000059e+01 1.518560000000000088e+01 5.896799999999999958e-02 1.957550000000000168e+01 1.502749999999999986e+01 1.763200000000000145e+01 1.772400000000000020e+01 1.352030000000000065e+01 2.217880000000000074e+00 1.394180000000000064e+01 1.509759999999999991e+01 7.145889999999999631e+00 9.368790000000000173e-01 9.603479999999999794e-01 1.718789999999999907e+01 8.672299999999999454e-01 1.241840000000000055e+00 1.520529999999999937e+01 2.088060000000000027e+00 9.747550000000000381e+00 1.755239999999999867e+01 9.860229999999999606e+00 7.778120000000000367e+00 1.355379999999999918e-01 1.516569999999999929e+01 1.013059999999999938e+01 7.471870000000000456e-01 4.074590000000000156e-01 5.555819999999999759e+00 4.699740000000000029e-01 2.397930000000000117e+00 4.451590000000000380e+00 6.351219999999999644e-01 2.492529999999999912e+00 6.821430000000000327e+00 3.252869999999999928e-01 4.783900000000000041e+00 7.619559999999999889e+00 1.814240000000000075e+00 4.509940000000000282e+00 5.661800000000000388e+00 1.363220000000000098e+00 4.116039999999999921e+00 9.704499999999999460e+00 1.484510000000000041e+01 1.962520000000000042e+00 1.317290000000000028e+01 1.591990000000000016e+01 3.620690000000000186e+00 1.470689999999999920e+01 1.466879999999999917e+01 5.884319999999999773e+00 1.336769999999999925e+01 1.670309999999999917e+01 3.934880000000000155e+00 9.469189999999999330e+00 1.824950000000000072e+00 6.127159999999999940e+00 3.814849999999999852e+00 8.228649999999999576e-01 6.612610000000000099e+00 5.898990000000000400e+00 2.283780000000000143e+00 7.066720000000000113e+00 1.607429999999999914e+00 2.536820000000000186e-01 7.798770000000000202e+00 2.664200000000000124e+00 1.019719999999999960e+00 9.031250000000000000e+00 5.449860000000000149e+00 2.612369999999999859e+00 1.024779999999999980e+01 6.097249999999999837e+00 2.553170000000000162e+00 9.490759999999999863e+00 3.702459999999999862e+00 4.234169999999999767e+00 8.777570000000000761e+00 7.415250000000000341e+00 4.929089999999999860e-01 1.139039999999999964e+01 9.133969999999999700e+00 1.780699999999999861e+01 1.194650000000000034e+01 1.140879999999999939e+01 1.608879999999999910e+01 1.210880000000000045e+01 9.818289999999999296e+00 2.335100000000000176e+00 9.882099999999999440e+00 8.400919999999999277e+00 3.887770000000000170e+00 6.132970000000000255e+00 3.219339999999999979e-01 4.822320000000000384e+00 1.469749999999999979e+01 1.238420000000000076e+00 4.893119999999999692e+00 1.604720000000000013e+01 2.964789999999999814e+00 3.863770000000000149e+00 1.061009999999999920e+01 1.514860000000000007e+01 6.591989999999999794e-01 8.392020000000000479e+00 1.436979999999999968e+01 3.196670000000000122e+00 1.753500000000000014e+01 3.807609999999999939e+00 2.800429999999999975e+00 1.665380000000000038e+01 6.035149999999999793e+00 1.645140000000000047e+00 1.861199999999999832e+01 5.004640000000000200e+00 1.120319999999999983e+00 1.629550000000000054e+01 7.939239999999999853e+00 1.617670000000000030e+01 5.412369999999999681e-01 1.178129999999999988e+01 1.734499999999999886e+01 2.520560000000000023e-01 1.397830000000000084e+01 1.655359999999999943e+01 1.840119999999999933e+01 1.304850000000000065e+01 1.655189999999999984e+01 2.853479999999999794e+00 1.151069999999999993e+01 4.844059999999999810e+00 1.272719999999999985e+01 1.444619999999999926e+01 1.640360000000000040e+00 4.331189999999999762e-01 3.433840000000000003e+00 7.607910000000000394e+00 1.909529999999999950e+00 5.652800000000000186e-02 5.852789999999999715e+00 3.205950000000000188e-01 1.032680000000000042e+00 4.902370000000000339e+00 1.415809999999999924e+01 7.481279999999999930e+00 4.820839999999999570e+00 2.356000000000000108e-02 1.365850000000000009e+01 5.235809999999999853e+00 1.038100000000000023e+00 4.913509999999999600e+00 4.418899999999999828e+00 2.914880000000000138e+00 6.329110000000000014e+00 4.828929999999999723e+00 5.177010000000000112e+00 7.370879999999999654e+00 4.819280000000000008e+00 4.673919999999999852e+00 4.828280000000000349e+00 5.632500000000000284e+00 3.626570000000000071e+00 8.973819999999999908e+00 3.025380000000000180e+00 2.895389999999999908e+00 1.085420000000000051e+01 1.774610000000000021e+00 2.773260000000000058e+00 1.291119999999999912e+01 4.049929999999999808e+00 1.887960000000000083e+00 1.259810000000000052e+01 2.716219999999999857e+00 8.543079999999999563e-01 1.413979999999999926e+01 3.410909999999999886e+00 3.561990000000000212e+00 8.661910000000000664e+00 1.471389999999999976e+00 2.530749999999999833e+00 1.523279999999999923e+01 5.886320000000000441e+00 4.273320000000000007e+00 2.688450000000000006e+00 6.326880000000000059e+00 6.342570000000000263e+00 3.984119999999999884e+00 2.308889999999999887e+00 4.259929999999999772e+00 7.800510000000000499e-01 3.928199999999999747e-02 4.176689999999999792e+00 1.888950000000000073e-01 6.605979999999999741e+00 4.604519999999999946e+00 4.241980000000000195e-01 7.784790000000000099e+00 5.840259999999999785e+00 2.126119999999999788e+00 8.691280000000000783e+00 6.911609999999999587e+00 4.165029999999999788e+00 8.594359999999999999e+00 8.114119999999999777e+00 6.251689999999999969e+00 7.462329999999999686e+00 8.853229999999999933e+00 4.378040000000000376e+00 8.409209999999999852e+00 8.708920000000000883e+00 8.529139999999999944e+00 5.086730000000000196e+00 7.713610000000000078e+00 9.322060000000000457e+00 4.477490000000000414e+00 9.692360000000000753e+00 1.076679999999999993e+01 3.627569999999999961e+00 7.432789999999999786e+00 1.120570000000000022e+01 3.661690000000000111e+00 9.141080000000000538e+00 1.293549999999999933e+01 4.310599999999999987e+00 4.158459999999999823e+00 1.541769999999999996e+01 6.722240000000000215e+00 7.875479999999999592e+00 7.542779999999999596e+00 4.349940000000000140e+00 1.135440000000000005e+01 1.278909999999999947e+01 5.704710000000000392e+00 5.186420000000000030e+00 1.396959999999999980e+01 6.428819999999999979e+00 8.838689999999999714e+00 1.993409999999999904e+00 5.164310000000000400e+00 9.515549999999999287e+00 4.002959999999999852e+00 1.118440000000000012e+01 1.100709999999999944e+01 1.727559999999999985e+00 5.733979999999999855e+00 1.348649999999999949e+01 1.236129999999999995e+01 8.822020000000000195e+00 1.140360000000000085e+01 1.529590000000000005e+00 4.438810000000000144e+00 1.060870000000000068e+01 2.334870000000000001e+00 4.654349999999999987e+00 1.385319999999999929e+01 3.341619999999999813e+00 6.010480000000000267e+00 1.367479999999999940e+01 5.370899999999999785e+00 3.829969999999999875e+00 1.312870000000000026e+01 5.487599999999999589e+00 7.257839999999999847e+00 1.464680000000000071e+01 7.201990000000000336e+00 2.615069999999999784e+00 1.534880000000000067e+01 9.806689999999999685e+00 3.375640000000000196e+00 1.671440000000000126e+01 1.156840000000000046e+01 5.138239999999999696e+00 1.483389999999999986e+01 1.035479999999999912e+01 5.290879999999999583e+00 1.566070000000000029e+01 1.263310000000000066e+01 6.601499999999999702e+00 1.105259999999999998e+01 1.226150000000000073e+00 2.501160000000000050e+00 1.455499999999999972e+01 7.002390000000000114e+00 4.302970000000000184e+00 1.781009999999999849e+01 1.331129999999999924e+01 7.371279999999999610e+00 1.327519999999999989e+01 2.252060000000000173e+00 9.362230000000000274e+00 1.798969999999999914e+01 3.791069999999999940e+00 4.579819999999999780e+00 1.900260000000000105e+01 1.561769999999999925e+01 7.105129999999999946e+00 1.750939999999999941e+01 3.292089999999999961e+00 6.075879999999999725e+00 1.791870000000000118e+01 1.156449999999999978e+00 8.391999999999999460e+00 1.849790000000000134e+01 1.147759999999999891e+00 1.434779999999999944e+01 3.684250000000000025e+00 6.038509999999999600e+00 8.312580000000000524e+00 1.815299999999999914e+00 1.218609999999999971e+01 7.345469999999999722e+00 1.836230000000000118e+01 5.514669999999999739e+00 8.421810000000000684e+00 1.830809999999999960e+01 7.831380000000000230e+00 6.814440000000000275e+00 1.913860000000000028e+01 9.315049999999999386e+00 1.233929999999999971e+01 4.633309999999999818e+00 6.786200000000000010e+00 7.022549999999999848e+00 3.577659999999999729e-01 6.996410000000000018e+00 8.198719999999999786e+00 1.729309999999999903e+01 1.007670000000000066e+01 9.973300000000000054e+00 6.233500000000000263e+00 1.308249999999999957e+01 6.542530000000000179e+00 2.852180000000000160e+00 1.092300000000000004e+01 7.813860000000000028e+00 6.162189999999999834e+00 1.406750000000000078e+01 5.863809999999999967e+00 1.258150000000000102e+00 8.896089999999999165e+00 9.467739999999999156e+00 6.919179999999999886e+00 1.537090000000000067e+01 1.078340000000000032e+01 4.418040000000000411e+00 4.687479999999999869e+00 1.215029999999999966e+01 4.663840000000000430e+00 2.535369999999999902e+00 1.025469999999999970e+01 5.476799999999999891e+00 9.441479999999999873e-01 1.208280000000000065e+01 9.482060000000000599e+00 1.261700000000000088e+01 9.974729999999999208e+00 3.766399999999999970e+00 2.621570000000000178e+00 1.034060000000000024e+01 1.324939999999999962e+01 2.006349999999999856e+00 1.210640000000000072e+01 9.914020000000000721e+00 4.184720000000000439e+00 1.223809999999999931e+01 9.147669999999999746e+00 6.558460000000000178e+00 1.287560000000000038e+01 1.150970000000000049e+01 5.524219999999999686e+00 1.326939999999999920e+01 9.177630000000000621e+00 8.945669999999999789e+00 9.343719999999999359e+00 1.099879999999999924e+01 8.251419999999999533e+00 9.493199999999999861e+00 1.272150000000000070e+01 1.200590000000000046e+01 1.055790000000000006e+01 1.080879999999999974e+01 1.115399999999999991e+01 1.011979999999999968e+01 1.083159999999999989e+01 1.348440000000000083e+01 7.494769999999999932e+00 4.102439999999999642e+00 1.263949999999999996e+01 1.067459999999999987e+01 8.838599999999999568e+00 8.316620000000000346e+00 9.711130000000000706e+00 1.310859999999999914e+01 1.435730000000000040e+01 9.161220000000000141e+00 3.840489999999999959e+00 2.577389999999999959e-01 1.188419999999999987e+01 1.368849999999999945e+01 5.735719999999999708e+00 1.005819999999999936e+01 1.297760000000000069e+01 9.914979999999999905e+00 8.340009999999999479e+00 1.445139999999999958e+01 8.614399999999999835e-02 9.103270000000000195e+00 1.547289999999999921e+01 1.398019999999999996e+01 1.135060000000000002e+01 1.471739999999999959e+01 3.637070000000000025e+00 1.289729999999999954e+01 1.573649999999999949e+01 5.109239999999999782e+00 1.066089999999999982e+01 1.546460000000000079e+01 9.704969999999999430e+00 1.620080000000000098e+01 1.577159999999999940e+01 5.672699999999999854e+00 1.015189999999999948e+01 1.700750000000000028e+01 1.112759999999999927e+01 1.495599999999999952e+01 1.650359999999999872e+01 7.674319999999999808e+00 9.045070000000000832e+00 1.305470000000000041e+01 7.198059999999999903e+00 8.693289999999999296e+00 1.900379999999999825e+01 1.167109999999999914e+01 1.085849999999999937e+01 1.701920000000000144e+01 1.430599999999999916e+01 8.604419999999999291e+00 1.764219999999999899e+01 1.367590000000000039e+01 9.023179999999999978e+00 1.501270000000000060e+01 2.619510000000000005e+00 8.150209999999999511e+00 1.428040000000000020e+01 9.499340000000000117e+00 8.639609999999999346e+00 1.192880000000000051e-01 1.390310000000000024e+01 1.551619999999999955e+01 1.285229999999999961e+01 4.466600000000000015e-01 1.128979999999999961e+01 1.749449999999999861e+01 4.961579999999999657e+00 8.048209999999999198e+00 6.494980000000000198e-01 2.042809999999999793e+00 1.142750000000000021e+01 1.814880000000000138e+01 2.643180000000000085e+00 1.024579999999999913e+01 1.997860000000000014e+01 1.361359999999999904e+00 1.258109999999999928e+01 1.942389999999999972e+01 7.051359999999999850e-01 1.360340000000000060e+01 1.789399999999999835e+01 5.547439999999999927e+00 1.187959999999999994e+01 2.233060000000000045e+00 1.301500000000000057e+01 1.449360000000000070e+01 1.446090000000000098e+00 5.165499999999999758e+00 1.539939999999999998e+01 2.056210000000000093e+00 7.305719999999999992e+00 1.281099999999999994e+01 5.703759999999999941e+00 4.606060000000000265e+00 1.386009999999999920e+01 6.305939999999999657e+00 2.386839999999999851e+00 1.246840000000000082e+01 1.605239999999999867e+01 1.085130000000000017e+01 1.233440000000000047e+01 6.513119999999999798e+00 1.258830000000000027e+01 1.167970000000000041e+01 4.592789999999999928e+00 1.371080000000000076e+01 1.354260000000000019e+01 3.524789999999999868e+00 1.444449999999999967e+01 1.371480000000000032e+01 3.726620000000000044e+00 8.585499999999999687e+00 1.289380000000000059e+01 6.487239999999999895e+00 1.491510000000000069e+01 1.429809999999999981e+01 9.324970000000000425e+00 1.242670000000000030e+01 1.485139999999999993e+01 7.609169999999999767e+00 4.338890000000000136e+00 1.303999999999999915e+01 9.589309999999999334e+00 2.021869999999999834e+00 1.147899999999999920e+01 7.451100000000000279e+00 7.901510000000000478e-01 1.360459999999999958e+01 8.428639999999999688e+00 1.573850000000000016e+01 1.675629999999999953e+01 7.597870000000000346e+00 5.716590000000000060e+00 1.553749999999999964e+01 9.740040000000000475e+00 5.133169999999999789e+00 1.615230000000000032e+01 1.120930000000000071e+01 6.891079999999999650e+00 1.592559999999999931e+01 1.229749999999999943e+01 4.828389999999999738e+00 1.391499999999999915e+01 1.152219999999999978e+01 9.086809999999999832e+00 1.447600000000000087e+01 1.311849999999999916e+01 1.105620000000000047e+01 1.659250000000000114e+01 9.888799999999999812e+00 1.254509999999999970e+01 1.321380000000000088e+01 1.131900000000000084e+01 1.197160000000000046e+01 9.089370000000000616e+00 2.406089999999999840e+00 1.424070000000000036e+01 1.552899999999999991e+01 9.768010000000000304e+00 8.876369999999999649e+00 1.358079999999999998e+01 1.342290000000000028e+01 1.320560000000000045e+01 1.727329999999999899e+01 8.632400000000000517e+00 6.231719999999999482e-01 1.626899999999999835e+01 1.152149999999999963e+01 2.316920000000000091e+00 1.524339999999999939e+01 1.344749999999999979e+01 3.076659999999999950e+00 1.490869999999999962e+01 1.040329999999999977e+01 5.876970000000000249e-01 1.275769999999999982e+01 1.551590000000000025e+01 1.386630000000000074e+01 3.308149999999999924e+00 1.661410000000000053e+01 1.650179999999999980e+00 1.545129999999999981e+01 1.522090000000000032e+01 1.269980000000000109e+00 1.649060000000000059e+01 1.580150000000000077e+01 3.313930000000000042e+00 1.679420000000000002e+01 1.498339999999999961e+01 7.925340000000000273e+00 1.545030000000000037e+01 1.755549999999999855e+01 4.078229999999999578e+00 1.400479999999999947e+01 1.730740000000000123e+01 9.846000000000000085e+00 1.327960000000000029e+01 1.823979999999999890e+01 1.188719999999999999e+01 1.072259999999999991e+01 1.144790000000000063e+01 6.558239999999999625e+00 1.287620000000000076e+01 1.786439999999999984e+01 1.401820000000000022e+01 1.475600000000000023e+01 1.436170000000000080e+01 1.490569999999999951e+01 1.601300000000000168e+01 1.634499999999999886e+01 9.797050000000000480e+00 1.303950000000000031e+01 9.085100000000000120e-02 1.324169999999999980e+01 2.977809999999999846e+00 1.466999999999999993e+01 1.581900000000000084e+01 1.443539999999999957e+01 1.944010000000000105e+01 3.599559999999999871e+00 1.210229999999999961e+01 1.320470000000000033e+00 1.518919999999999959e+01 1.421180000000000021e+01 1.519169999999999909e+00 2.678690000000000015e+00 1.404739999999999966e+01 1.481819999999999915e+00 3.571170000000000178e-01 1.588109999999999999e+01 4.258440000000000003e-01 1.367250000000000076e+00 1.598290000000000077e+01 7.811890000000000001e+00 1.389809999999999945e+01 1.694750000000000156e+01 5.747700000000000031e+00 1.457370000000000054e+01 1.729989999999999917e+00 7.951889999999999681e+00 1.254589999999999961e+01 1.585830000000000073e+00 9.822639999999999816e+00 5.668999999999999734e-02 1.067520000000000024e+00 1.031170000000000009e+01 1.293699999999999939e+01 1.700590000000000046e+01 1.201679999999999993e+01 1.355569999999999986e+01 3.621780000000000221e+00 8.723990000000000578e+00 5.763500000000000290e-01 1.717050000000000054e+01 1.412829999999999941e+01 1.276629999999999932e+01 1.319460000000000077e+00 1.429630000000000045e+01 1.407029999999999959e+01 1.363240000000000007e-01 1.642109999999999914e+01 1.326370000000000005e+01 4.812549999999999883e-01 1.832829999999999870e+01 1.458360000000000056e+01 2.672410000000000174e+00 1.247180000000000000e+01 1.519660000000000011e+01 3.356310000000000127e-01 1.796179999999999999e-01 3.044819999999999749e-01 1.554770000000000074e+01 8.051940000000000097e+00 2.241389999999999993e+00 1.436699999999999956e-02 1.883440000000000003e+00 1.946830000000000060e+00