-1.057606892347044632e+05
-1.057614591696017014e+05
-1.057694558713956794e+05
-1.057652142982619262e+05
-1.057663726423295302e+05
-1.057699877070397924e+05
-1.057655940464003943e+05
-1.057693732590880245e+05
-1.057682774304841441e+05
-1.057625299355026655e+05
-1.057635382342013909e+05
-1.057660516277289571e+05
-1.057709314849356306e+05
-1.057690405832902616e+05
-1.057676671888697310e+05
-1.057623834743027110e+05
-1.057627167240616400e+05
-1.057674879470280866e+05
-1.057668064080616896e+05
-1.057630386997598835e+05
-1.057558789872406342e+05
-1.057641314784844581e+05
-1.057732372617171204e+05
-1.057654434257445537e+05
-1.057623388349223824e+05
-1.057693524698732654e+05
-1.057730445103796665e+05
-1.057611591830043471e+05
-1.057719434842647461e+05
-1.057672568520221248e+05
-1.057687814909372682e+05
-1.057643989290486061e+05
-1.057689069590714935e+05
-1.057679170820244326e+05
-1.057691358034619479e+05
-1.057638455542804877e+05
