4.426596173584377958e+00 -4.165724826187529928e+00 -2.072813255557204026e-01 1.393879471136476145e+00 -2.999567466649288860e-01 -8.401748760821944884e-02 -5.012823683655411866e-01 -1.342005917907708179e+00 -1.537193801634346046e+00 -3.105576629855108184e+00 -1.611043603840471627e+00 8.130008845243300586e-01 -1.843610702636325760e+00 7.333768983612878323e-01 -1.445290225757957181e+00 -3.060378689426117127e+00 3.021128225321437100e+00 -1.487819360884927500e+00 -3.341431655645398791e-01 -1.614401979067350501e+00 -6.650220582856825047e-01 2.285589543243444322e+00 -3.488355301059431923e+00 -4.796927104914708195e+00 1.407107797994760823e+00 1.349591187081141008e+00 -5.897704905201524017e-01 7.205213814922064586e-01 -2.639155852135142144e+00 -6.435543735556660261e-01 -7.957174134248621300e-01 1.934995944072553042e+00 -8.293901258703846313e-01 -4.881587882587055560e+00 1.072973374181692252e+00 4.188420469888881392e+00 6.399219187091384486e-02 4.796316210753088782e-01 1.544972932002164789e+00 2.351541430105880959e-01 -2.433811081640580021e+00 -2.193819664742494013e-01 -2.916392272506330707e-01 2.033707287462132474e+00 5.248285330629507861e+00 1.282158858896060849e+00 -7.373862769624169866e-01 4.269892565157022091e+00 3.397442628423311906e+00 2.941352544059340213e-01 -1.795574778303315799e+00 1.344645412631267911e+00 -5.262223282018966941e+00 -1.976194276093235835e+00 2.609750142848805243e+00 -7.002122359424314268e-01 3.946684816461997869e+00 -1.391704831902902395e+00 5.028245675912236479e+00 6.447986333223907351e+00 2.818758735651055503e+00 1.278540288007751879e+00 5.619504835285829003e+00 9.435229472961144115e-01 3.166132799177253876e+00 -9.513776681031232973e-01 -3.058171654290032571e+00 1.045137580615407291e+00 2.056616846964185452e+00 -5.493854499186751283e+00 -1.584726303926762947e+00 -3.962083154567783705e+00 -3.621216039460039671e+00 7.149225467853840277e-01 -4.852433112990003905e-01 3.883780201318208225e-01 5.653084988009893924e-02 6.823045009438009068e-01 9.755028452803162775e-01 -9.395768178379811930e-01 3.215929929321327929e+00 -3.900857469927096477e-01 4.487114290576591280e+00 1.296247476943224619e+00 9.530134040695450448e-01 1.163772918269364354e+00 6.063520503985685428e-01 2.124102139878766060e+00 -1.219919131084740149e+00 -6.906374469783395753e+00 -4.435867058129685070e+00 -1.908538261914634049e+00 -8.115692941657891568e-01 1.341293722273161126e+00 -3.358693015255851844e+00 6.009936652792654321e+00 -2.646766832342313247e+00 -2.170217964212210138e+00 3.220294634408718881e+00 -2.382433237142283833e+00 -9.293263429072504689e-01 4.225567771433778930e+00 4.721256961519920026e+00 1.920099999566011323e-02 -3.240733877789208517e+00 -2.056867272432795213e-01 6.673859307275692432e-01 1.698896663461750389e+00 4.401716120456632630e+00 3.408964256862057507e+00 7.330426549226918276e-01 -1.453096609821538321e+00 8.302077367432583177e-01 -6.022876501852396647e-01 -6.669344449751272164e-01 2.990427708376046212e+00 -2.056121652454388493e-01 -3.752797911042510925e+00 1.442252210011456093e+00 -1.527651922793439088e+00 -3.093004448577821197e+00 2.410709717826840848e+00 3.965609679955309996e+00 4.980973369281250562e+00 3.836319175699583806e+00 1.731187664954183969e+00 4.398422537034773483e-01 -2.565659319532579197e+00 -3.467096904144044256e+00 3.981081037396912436e-01 -1.698689946750495450e+00 -6.360138415809375723e-02 7.832172230420421100e-01 1.753408682972728894e+00 2.799917175907054911e+00 2.238690560822336195e+00 -1.489085372186194522e+00 2.319718883648156815e+00 -1.287885734550899386e+00 -3.077911043332170138e+00 -5.816314056799994914e-01 1.021921545591195635e+00 -3.915915908166863968e+00 8.713392200762218875e-01 -2.218923918084436675e-01 1.176011884549404529e+00 5.553196079275106278e+00 3.456066870670371771e-01 -4.517955189766192703e+00 3.809860979320989771e-01 -1.974967859783925528e+00 5.748956290612755593e-01 -2.085740763320752256e-01 -1.584833261827113482e+00 4.942487037099268399e+00 -2.076994898084378871e+00 2.916552195136182579e+00 -6.135912490578856460e-01 -2.827221265295634112e-01 -1.770030866284451054e+00 2.723312693546222629e-01 7.390585225967470639e-02 2.352045366367149296e-02 -6.740805696923121149e-01 8.690843624173849591e-01 -9.830855433503754570e-01 3.614863357244014197e-01 -2.789472325561263566e-01 -7.203738001585493489e-01 1.817538171763804167e+00 -3.345399896592546440e+00 1.657526581735696558e+00 -3.209046571368946665e+00 -5.353548873856921020e+00 -3.088229395391969501e+00 -2.605838466175880885e+00 -2.112915269099291393e+00 -3.009610196427414675e+00 3.582609379640163461e+00 2.223999276144350112e+00 8.848956197250057443e-01 -1.002230493292486146e+00 -4.246263096710300999e+00 4.878972042014534938e-01 1.841118789246423137e+00 4.216506688923775670e+00 1.133013265946375636e+00 2.908385342379592231e+00 -7.970980959366014140e-01 4.584339021995430530e-01 -1.563568180042953726e+00 3.195616670006155235e+00 3.273095327514084829e+00 -2.333655806596265148e+00 -4.176820165686896402e+00 2.125305930478386784e+00 -1.538215043894425982e+00 -3.854974587559320209e+00 -3.251384416404905053e+00 1.766481715187234958e+00 1.989422602951520735e+00 -4.418384583629083595e-01 -2.118717735193320073e-01 4.187546808962459011e+00 2.991433009795208431e+00 2.881140388368610861e+00 3.238589063354771369e+00 -1.302083881601787674e-01 -1.327370683283271013e+00 3.057093847755729232e+00 1.915002015796408275e+00 -5.689748407899839933e+00 -1.694710392948502564e+00 1.347809926663761093e+00 1.125426968331593169e+00 -2.931770556005801165e+00 1.729059819802013509e+00 -1.648923155626232484e+00 1.538483467086652290e+00 -1.122814213083120904e+00 -1.125385830677612109e+00 5.844791597768383973e-01 3.560679410523534649e+00 1.765611139584860600e+00 1.324099725571102004e+00 9.881593587482643271e-01 9.061133932070873920e-01 -1.458057296670979830e-01 -1.759315535863734015e+00 -4.543455907248377557e+00 2.190000547791027152e+00 3.657025338809203330e+00 -2.330719092322692365e+00 -1.082244258726998976e-01 -3.922994669975655158e-01 -3.467542733469063609e+00 5.003635074418067319e+00 -4.345491746098693042e+00 5.917466919953350946e+00 -2.007203325443484676e+00 1.340668429932648786e+00 -3.133650507593808143e-01 1.049612328927197247e+00 4.903931285126194695e+00 -1.072804195579694975e+00 -3.980420263829842042e+00 -1.232104618414605168e+00 -1.521987267840246849e+00 -2.641783519783182044e+00 1.807727355509996248e-01 -6.008185217174409898e-01 4.573447828103944235e-01 1.660506490545949676e+00 3.848106142006507024e+00 -2.154004072116249890e+00 1.201981571286973471e+00 -8.230672684534956485e-01 -2.216338416531726807e+00 5.017389963247309570e-01 3.560589421905451246e+00 -4.311582492142779444e+00 -1.054894917919040109e+00 1.645634200190446705e+00 3.941974555081166343e-01 1.307920800481025436e+00 -2.257950181974919701e+00 1.267067510533108621e+00 3.479293704328754178e+00 -2.294845515389183355e+00 8.058023092983193081e-01 -3.493166863913191644e+00 -8.399136519794146993e-01 4.919597532203531465e+00 -1.357231477866773339e+00 -1.156938411281085877e+00 2.414929926904622715e+00 2.706413345290803019e+00 2.572804415808414458e+00 -3.887456879142765498e+00 -3.116382977335257820e+00 -7.872517984562344973e-01 2.036186859555841000e+00 -2.043743332371487309e+00 -9.197716085494741511e-01 8.464895059682872591e-02 3.556177408515982741e+00 1.369709042539903887e+00 3.622116439861549964e+00 -3.134537538257775147e+00 -2.181721080706664484e+00 8.961066588761942286e-01 -2.136299454284150467e+00 -1.976222558230347870e+00 -1.126810221946706436e+00 9.303835806145636100e-01 -6.173033052648666086e+00 1.991988049897914712e-02 -4.862486127181624984e-01 1.541168213229591410e+00 -3.823688373265373697e-01 -4.007059465885952632e-01 -1.850596390502984745e+00 -4.519674743702601027e+00 5.353757133230200443e-02 9.497409036953518013e-01 7.691239770088054151e-01 -1.382991362569038762e-01 -1.430119687411091745e+00 1.241818246960883165e+00 -5.661471927215282474e-01 1.884672251957521638e+00 1.880574427400333315e+00 4.815755294921164165e+00 7.931473384923953818e-01 -3.860367733996237227e-01 -4.091284184426100978e+00 1.526422935380754853e-01 -1.754494202817153958e+00 3.707973294823397881e-01 -1.709490637803222635e+00 1.981015094919141628e+00 4.915031766832309579e+00 -2.326226860507960570e+00 -8.426456035802971201e+00 1.954444798433449204e+00 1.083633168769534638e+00 -1.434624260522017816e-02 -2.500800665824689073e+00 2.291112787511076831e+00 -6.305420193807816931e-01 2.438057001752100383e+00 5.834964840673659281e-02 1.756871959217259027e+00 -3.089450669494532509e+00 -1.897529825709302287e+00 -6.149734742316492753e-01 2.387185664618445724e+00 6.187482653609513328e+00 2.408081535958126018e+00 -1.866346455550308425e+00 2.543307175241969809e+00 9.021960601067406937e-01 -5.688206260096224653e-01 -1.783214455944031496e+00 1.047058709056322812e+00 -2.120321589477907054e+00 -4.030650367782066645e+00 -4.574199618730448336e+00 -6.744883466873994315e-01 -1.617712531771476447e+00 -2.180776457327123996e+00 6.462761435871879900e-01 -4.061711353420466075e+00 -1.540103262212156654e+00 -3.032851428264689897e+00 5.173158204267270577e+00 6.098652060485511006e-01 -1.009139562278605240e+00 6.014021621832972286e-01 -1.379448382119919936e-01 -4.517490334276206831e-01 2.119534317624844011e+00 -3.813794767482929227e-01 1.535159544644982610e+00 -4.584939117522879748e+00 -4.822546093152087820e+00 -1.300661032994717692e+00 1.267959169183148216e+00 1.423664675280788661e+00 -3.216868382052771480e+00 3.310407179674906608e+00 1.269188670816506992e+00 -3.400952698749246106e-02 4.836677391515257218e-01 3.029016884692980680e-02 -1.330660667160406208e+00 -7.016397125355743336e-01 3.606970069886398012e+00 -2.728809712559442158e+00 1.290721147351543863e+00 3.639579373976510102e+00 1.259772776040917197e+00 6.753769200133903361e+00 1.292390821882500040e-01 1.659305785270377642e+00 1.405649982381806939e+00 -1.394771129786515740e+00 1.553568644801507359e+00 5.857390004300084829e-01 5.764115516104776349e-01 -2.562660384557359894e+00 5.522174174407988190e+00 -2.453190516210383088e+00 1.638985326865757708e+00 -1.586375923851403302e-01 2.698762255871000271e+00 5.105352551872313072e-01 -1.640818523571288656e+00 1.958532852797817414e-01 1.385896709381451153e-01 -2.889093839545173736e+00 1.503305630726097686e+00 1.008301382578741023e+00 -1.994754557128141315e+00 4.573859204643754950e+00 9.814518642666524295e-01 -3.801268351845696003e+00 -2.419356338472984813e+00 -6.954937470308038272e-02 -9.740779397905473258e-02 6.219751029392257546e-01 -2.351999600727095352e+00 -3.675868441215228266e+00 -6.319257872165697301e-03 -3.504851500305837586e+00 -1.785035825574043056e+00 -2.463181823921033242e+00 1.012169864714985490e+00 -7.181230562651106375e-01 -1.073274707497103408e+00 5.976488654782002863e-01 -4.445386311260902668e-01 2.409571747473589820e+00 6.279544609453729942e-01 -4.933600789618685312e+00 -2.351082231043317705e+00 -1.613210015543249387e+00 6.591563430486580000e-01 6.713176620068092015e-01 2.467495106940947647e+00 -1.686508058965353829e+00 -1.569842186495740366e+00 -2.280604688022289661e+00 1.915991376374652777e+00 -2.101444034286672924e+00 6.661579203341672084e+00 -2.556685654537285579e+00 4.759292322170133871e-01 3.596650689385249233e+00 7.292471921222641873e-01 -3.173396166208284797e+00 7.146998892332116771e-02 2.594203194968013104e+00 3.319966542018756073e+00 -1.755827062806140093e-01 1.302891208061166262e-01 -4.943705225877783604e+00 1.073396063576347759e+00 3.106353617294675296e+00 5.273523281346889080e-01 -1.946546368869085386e+00 4.187396656525427252e-01 4.717060920813851865e+00 -1.182060148125970045e+00 -1.880651046280872984e+00 2.031512079401568638e+00 -1.699004135582775632e+00 -1.165780435783639879e+00 -2.690834515728174892e-01 3.152023098082424646e+00 2.673271308581635974e+00 6.169815059665997303e-01 -7.664875676092941514e-01 -2.137219909291977249e+00 -1.292935895797749368e-01 -5.939233366895404487e-01 -5.659296773761033350e-01 -9.520302141393977013e-01 1.183244912560624362e+00 7.795302608039894610e-01 -1.382691571915651840e+00 -2.818911459191459912e-01 5.953297302350180065e-01 -2.241882842771266482e+00 1.198735810387867806e+00 1.562564935506490560e+00 2.199167559760031865e-01 -1.465778834323224755e+00 2.181987447016191517e-01 1.095971893860478996e+00 -1.510883700810083941e+00 -2.081734984264346444e+00 3.668866812507651787e-01 -4.269394285323176774e+00 -3.124327172539675512e+00 -5.031921839516120265e-01 2.039260870749576071e+00 1.838400618759624405e-01 -2.895690776581712367e+00 4.875369411967143130e+00 -4.490529744298368819e-01 -4.064412554624997398e+00 -1.287363286345339697e+00 1.356728570046854765e+00 -2.757099562981542462e+00 -8.023282344196186466e-02 2.010564785994412240e+00 3.125615295329957632e+00 -5.305970605924450467e-01 2.337235296713292332e+00 -1.175846819712805580e+00 2.458775981179661674e+00 6.874307668505158508e-02 -1.582045157328547225e+00 -1.702067862363015216e+00 4.888330858295227288e-01 -1.843732058715569888e+00 3.063073719982550847e-01 6.332597784910404926e+00 3.563158468396568357e-01 -1.354274194766210027e+00 8.632644128204143286e-01 -2.944114423303493044e+00 1.365937748111190286e+00 7.453291866151477763e+00 6.005244903356113717e+00 1.145312910266037987e+00 2.715697085352978823e-01 1.844143949476055200e+00 -1.206066026106618061e+00 -1.874573986346520504e+00 -2.596343381416377660e+00 1.189459269415138465e-01 -1.268164857453053518e+00 -5.178356461068452932e-01 -3.934065841103307481e-01 6.031165739129580317e-01 -1.023811306570950874e+00 1.725203678961964027e+00 -5.194754958386652355e+00 1.475626160244941198e+00 3.310572244511506224e+00 -1.730144311205089380e+00 1.411350118561558009e+00 3.309017241191021697e+00 -3.649958404075932528e+00 3.238019306847133016e+00 1.338548298090600053e+00 4.531894169596999866e+00 2.143537624502118710e+00 3.939233758884678194e-01 -2.437344291896878790e-01 -2.843441328039691740e+00 -1.337878782772058128e-01 -9.335948887284601927e-01 3.543204649333055123e+00 2.948208648315958413e+00 1.279268424483216648e+00 -1.757401092291590583e+00 -8.524410960579973384e-01 2.831227558572714909e+00 -3.054049147140455833e+00 -8.895729709826522003e-01 -6.644816123565063792e-01 1.678538666947872793e+00 2.332772889697697138e+00 1.228885082769912485e+00 -1.166509600700454258e-01 1.986902407424505912e-01 -5.911367748529984256e-01 -5.787553694460485509e-01 1.450577442735873079e+00 -2.338639119155396351e+00 -4.646199769169450655e-01 -3.399343188037237118e-01 -1.250519889219227077e+00 -1.073319958916482353e+00 -1.066672114033142993e+00 1.850851443957667097e+00 1.540568117702142636e+00 -8.818344640481399210e-01 -1.067702098044693848e-01 1.234597560245857539e-01 1.127038021705626669e-01 3.848257837105562573e-01 1.113640516245344436e+00 4.378933059240571524e+00 -1.328661891397601602e+00 1.612023708446570502e+00 7.266215813569230075e-01 1.657398026567005633e+00 -6.200031694956436468e+00 1.039414818725967082e+00 1.076491157817747624e+00 -1.259619538279837636e+00 -1.055215277399417895e+00 2.373624122762914457e+00 -1.044716433882776352e+00 -5.342608314780657786e+00 1.306781287465750063e+00 3.048922367013065848e+00 3.649669926277390175e+00 2.537053737616173699e+00 -4.354726120976091686e+00 9.964290556398071041e-01 -2.214951563371890586e+00 -2.115389698986252398e+00 9.778163240960762170e-01 3.074509987789285637e-01 -4.076808358210841088e-01 2.776634806415798629e+00 -8.404762093976058113e-01 -6.429609628969892299e-01 -1.698028658962749793e+00 -2.135568746705312215e-01 2.475216644593192794e-01 -9.960840135670410156e-01 -3.566418627474567948e-01 1.538250010900309661e+00 -4.722052460903778948e-01 -1.190760247722289639e-01 -1.568542750850613565e+00 -3.107949758269140661e-01 -2.925748517683648853e+00 9.261613146540824681e-01 2.371993529003240120e+00 -3.449218479723874964e+00 -1.829928318922224850e+00 2.969086521932021494e+00 -9.168153538902601429e-01 -3.761424991303014220e+00 -2.030446614163458730e+00 8.075136357039313095e-01 -2.455350757265063688e+00 1.669627222654225251e+00 1.874391952227654201e+00 1.211406207814034325e-01 -3.014325600014994277e-01 1.442976746942197241e+00 5.849152189090376375e-01 4.625924047963535513e-01 1.790174432776952207e+00 1.326854919946483635e+00 4.154285987277421266e-01 1.432700560977728355e+00 -7.969016636388419617e-01 -3.717049289732968775e-01 8.069325663414488314e-01 -1.803282431997342172e+00 1.049026117357967136e+00 -2.323822878853442297e+00 5.266000232875102105e-01 -1.313688248147102655e+01 -2.196674617928779938e+00 -2.548318255717537673e-01 -5.315601959162765539e-02 -1.616653237181463920e+00 -3.999514820145825933e+00 2.365622334842923724e+00 -1.515940546925705679e+00 1.283332824696545416e+00 -1.186958100053090215e+00 9.883851016244853405e-01 1.771507193841696415e+00 2.621601900960748743e+00 -5.020543678645632113e+00 2.905626548459487424e+00 1.539964422629970686e+00 -1.855608499419902246e+00 4.110551004668130837e+00 -1.421779028066431638e-01 -1.562540252914102146e+00 -1.347869576262033631e+00 1.770103371399592618e+00 1.907857433741247277e+00 7.872317438499188968e-01 4.260390281308071847e-01 -2.395304180631608215e+00 -1.669008615182485444e+00 -4.622710168746264614e-01 -3.035679127755213091e+00 2.666527818652790760e+00 1.023959916345957399e+00 1.117698745810576044e+00 -8.303023533474147566e-01 -3.756497214576758115e+00 2.762033510355895727e-01 3.303345901369057813e+00 1.549604517619757260e+00 -1.955805426338872888e+00 1.245855907699124243e+00 -1.222330311828705218e+00 1.385747585385770086e-01 -1.607592154671460660e+00 2.390637113787457135e+00 -2.464735284579492980e+00 -2.103723574537898156e+00 -4.415977002429841924e+00 2.235450970571327467e+00 3.290765492560974614e+00 -7.405487341122110045e-01 4.943278422717729548e+00 3.599028960006029010e+00 4.840271794031852925e-01 2.835346466177568470e+00 1.449279549752770582e-02 2.447124769130875954e+00 -3.486344698221107485e+00 6.366165082117601903e-01 7.220115930076703714e-01 -9.665332940504207659e-01 1.339716093242987238e+00 1.965848670337674298e+00 2.109673107744909348e+00 -2.823519904878688536e+00 -4.694258833432824574e+00 1.292169706992352118e-01 9.458189426089322893e-01 -2.208490380593489899e+00 -3.095400716922217743e+00 -2.613847967405993789e+00 -2.561266332308076432e-01 8.416110944268082594e-01 -1.843460035978620182e+00 1.432520069520886619e+00 -1.304199385457763816e+00 2.680650375264488794e+00 -1.599923067528041365e+00 1.078003480822226301e+00 3.028787028051361130e+00 -2.355141489049898507e+00 1.299995117220899221e+00 2.171638755936581511e+00 -2.824392023143086572e+00 2.311058893264468672e+00 -3.730821662065153532e+00 1.984179608951634588e+00 5.378362592517622609e-01 3.232488863490054487e-01 -2.977919804683105021e+00 9.308494645458990080e-01 1.218116787619694941e-01 -1.868440876358619329e+00 3.074432854688071259e+00 -4.596253515029694592e-01 -2.626546646969272203e+00 9.954659203159755831e-01 -2.296910625619032587e+00 8.480933602528739623e-01 -3.366009347016383213e+00 2.558525021890913465e+00 -1.478806100897677167e+00 8.429485824018675411e-01 -2.334230705310650578e+00 1.136353129228963033e+00 -8.645509929486719924e-01 -1.075975394480960246e+00 -1.360778057860615675e+00 -1.352815350711906506e+00 -3.333223151014152563e+00 -2.677867412972669836e+00 -1.078538270323980086e+00 -9.656462633864540956e-01 2.179588093347746280e+00 7.747156126261811604e-01 7.534093931880401218e-01 -1.758442389157986119e+00 1.062590230316872386e+00 -4.393296785348733913e+00 1.935756476450527952e+00 4.835217004798929297e-02 4.922655088335674001e-01 -1.270526158791566385e+00 -1.065233324585155517e+00 1.573994518444453483e+00 2.877917767399869486e+00 2.978632514538326781e+00 1.996514220277181062e+00 -6.628541553429481148e+00 1.092945190968822311e-01 5.631842531935423724e-01 -2.985428969196672888e+00 -1.301874593787158974e+00 -3.359738940108319749e+00 3.973835668089498729e-01 1.902811386259795734e+00 1.396668089855717332e+00 -1.852735548509999886e+00 -7.696392261249181965e-01 -4.788134445596930355e+00 1.059474053027807061e+00 3.710164903339238762e+00 -1.949926341364304649e+00 -6.515628463444290697e-01 3.223047257680726307e+00 1.613507749313937145e+00 -3.684614820672277080e+00 8.590822560725648316e-01 -2.309320313163094163e+00 -9.365753117593880184e-01 4.190898499320565990e-03 -5.399183387638787357e-01 1.196610022118396621e+00 -8.324553953126484496e-01 4.113144733751636473e+00 8.330477775299757748e-02 1.906550284785999139e-01 -7.774409822024264116e-01 1.937058997419703332e-01 -1.440437011029541692e+00 2.958272461141750576e+00 -8.690740780038896940e-02 5.762941550304292448e+00 4.457065291226125936e+00 -1.661333871611643809e-01 2.875341521819305246e+00 4.800265425535270025e-01 1.015786378720595212e-01 -1.872932079732001709e+00 4.815584059436467945e-01 -6.687954095970954915e-02 -1.419652211355610705e+00 6.911244139573403666e-01 -1.351722631778034645e+00 -4.893646357410253778e+00 2.945192229837797271e+00 2.189852966457370709e+00 2.517130771793146149e+00 -4.511209642954647769e+00 2.963412611006683850e-01 -1.089196522249798127e+00 4.216650156492034895e+00 -1.291300674052001940e-01 -3.975471918276594963e+00 6.164816834707298465e-01 -1.491164366374262418e+00 -1.258082018462295393e-01 1.186314295768286398e+00 -5.636753339379412253e-01 -8.168133166070249418e-01 7.813788841297634180e-01 -4.476886955576224736e+00 -7.602848321420298205e+00 -4.354113169931773442e+00 -6.335352979285786834e-02 -1.721225153601320390e-01 2.037718208725285862e+00 -6.035423486316620068e-01 4.962900055225345497e+00 3.535743821562914668e+00 -1.627001414040399663e+00 3.815193447718284725e-01 -1.878036234149701666e+00 2.832389183077005379e-01 9.027133661055526392e-01 -5.089941358249657766e-01 1.972267172800068913e+00 -9.551304505875455320e-01 -1.558940193970084431e+00 7.367476148843611350e-01 -6.535950464510933977e-02 -2.173111998169778014e-01 1.417222004446679673e+00 3.111081362178449439e+00 -1.696783730709148230e+00 3.478630873878984509e-01 3.705469040137300274e-01 -6.962846184285896856e-01 4.420645611936017794e+00 -4.213061410402861862e-01 -4.139793706000568285e+00 7.800455099201022424e-01 -1.513304137526194637e+00 -2.335375360532673916e+00 1.630736713021880169e+00 -5.494649998570610094e+00 6.360693774138119760e-01 1.746317579867743275e+00 -1.093711379774219727e+00 2.607830042849239138e+00 -1.565265108269672467e+00 2.567379387689662007e+00 2.250476498687910276e-01 6.422791062822531538e-01 1.765442475203538253e+00 -1.018322000867852850e+00 4.035290180930455328e+00 3.045878180618468156e-01 2.314867211581765616e-01 -7.617058295546706992e-01 3.647747769395124906e-01 2.564275037476116292e+00 2.072168422831050627e+00 2.889924820155591600e+00 -1.176350241753398862e+00 2.148585214645594377e+00 4.345046430994348174e-01 2.117069143710029078e+00 -3.261084675213639650e-01 -1.663385612103949196e+00 -1.286670631096433759e+00 -1.242065072884769528e+00 3.808914813279425382e-01 5.284360482067524956e+00 1.294880164169029069e+00 6.188537834434129081e-01 -1.918180413787119898e+00 -8.733611357693908950e-01 2.779419311369641932e-01 2.149936072358197503e+00 -1.622072608872794142e+00 3.232031207089515412e+00 1.942058250819751697e+00 1.523164318964780328e+00 -1.225578129610509909e-01 -3.459758975115172497e-01 -1.100341741154617026e+00 -8.469219655557632676e-01 -1.252154082523624590e+00 1.840550061180134866e+00 1.988547913583748605e-01 5.209837050777459400e-01 -4.378604472229398192e-01 -1.868096862727202379e-01 -1.824550084884876133e+00 -1.630393213611138203e-01 -6.077898114052064926e-01 -1.938763124735868759e+00 4.038993598230100623e+00 -3.035430759169302384e+00 1.056953857500792404e+00 -1.368743850333373313e+00 -6.764387857067765131e-01 7.017271300502839759e-01 -3.641777667361123516e+00 6.974719539666179857e-01 5.151702346612774264e+00 1.068787103668444427e+00 1.358733002237082044e+00 -1.789838132455657149e+00 3.945460971256061766e-01 4.701990655498565985e+00 2.880811287136762378e+00 3.254723765466817631e-01 1.974442840474992744e+00 -2.003691712455526464e-01 4.904842484161874711e-02 -4.656108801572138578e-01 -8.734603803596203697e-01 -2.879994704705238107e+00 1.905582521476095081e+00 -9.679294031824029476e-01 3.125217288527690762e-01 -4.249821503779662279e+00 -9.883701892249173726e-01 3.594191686118531903e-01 2.489138655141732936e+00 1.834226175321896024e+00 -1.238069578241859148e+00 -5.375107575646370650e-01 -8.086845161803672966e-01 -1.200533011646165216e+00 -1.576232406821023169e+00 1.872521217412865813e+00 -8.064502273485208983e-01 1.544351239206376070e+00 -1.027961581636964938e+00 9.750904402991561470e-01 1.979649324806970423e+00 3.238599347768266412e+00 -1.829890266592292536e-01 4.219185778639292228e-01 -4.894151836333546224e-01 -8.988803651958673369e-01 -1.828620655746301837e+00 -1.706682478698340777e+00 1.315101892204094236e+00 -9.924371605416200115e-01 -1.531595481148198434e+00 3.097670486980622639e-01 -1.809977585182760196e+00 -1.393074201559796998e+00 1.405214437470282407e+00 4.276287413468377707e+00 -1.576014891475598478e+00 -5.258189220825448817e-01 1.763319772258115536e+00 5.807603158569505375e-01 3.751111267229287338e-01 -9.634068323478600648e-01 9.426338597494486882e-01 -4.809146016588432104e+00 -6.170077312210127118e-01 -7.686109390415940545e+00 1.262142304910226054e+00 -3.724357393962705043e+00 -7.368283475302987995e-01 -3.041445598402008343e-01 -4.445968409064733784e+00 -2.098009040179254381e+00 -1.000209091819991958e+00 1.231828481912257356e+00 -1.355048611102403489e-01 3.671651317461494646e+00 -3.584125302189365314e+00 3.220790343139190437e-01 -1.627939352551168062e+00 1.438400182936804494e+00 -4.342989548295294600e-01 6.384373636210968206e-01 1.697189965042210869e+00 -1.807428079077283645e+00 5.021939273556940364e+00 2.161620708750843001e+00 -4.874856219733730178e+00 1.379898325210338061e+00 1.532603867891409455e-01 2.469890346843994777e+00 6.889220068073294012e-01 2.168955552455666069e+00 6.381817959457394274e-01 -9.191776836701227582e-01 -1.344677294313103122e+00 -8.178422721772260484e-01 -4.231763616344000889e-01 -6.495738407744447440e-02 1.947302273260987510e-02 1.333242569168392677e+00 5.866447487265364913e+00 3.086475902891026468e+00 -1.225344673424167308e+00 -3.254498536811271769e+00 2.177637140107694602e+00 -1.497904770979059386e+00 -1.007358816081900255e+00 -1.678103636257022746e+00 3.726274408638221569e-01 -1.059575354500735367e+00 1.159135162003674502e+00 -1.242914565439478425e+00 -1.716930382525697629e+00 -2.867140216277506148e-01 4.719277211922081605e+00 -4.324390186489107113e-01 -8.979141445479870143e-01 -1.321597013547028965e+00 2.688741637581888444e+00 -3.241029040456522292e+00 -1.592564569672179298e+00 -1.129133985175961419e+00 -1.035073253568940643e+00 -1.604882211715458418e+00 5.015615901919375785e-01 -1.626418287795218243e+00 -4.712950754960469335e-01 -1.454323026130848850e+00 -1.571257836013363329e-01 -2.135414994723558113e+00 1.180188899090506505e+00 1.081650848068322235e+00 8.273502124535987712e-02 1.051377134282984738e+00 -1.179102865025406510e-01 7.095679668990741984e-01 -1.771925769470953593e+00 -1.116783947230172158e+00 1.805943523989242294e+00 3.127893807139833893e+00 -1.354103473502188626e+00 9.235917539422903652e-03 1.135701611634037711e+00 2.842406201821393724e-02 2.920434047009969891e-01 -8.560951481728650003e-02 -4.931144871676015895e-01 3.692330701897099110e-01 -7.233938181814340007e-01 6.278891549196781163e-01 -3.057488255013272482e+00 4.069587157275139866e+00 5.933453526511065501e-01 -2.687625264496977362e+00 7.797421197219919220e-01 2.866065495067250612e+00 4.478661531124832895e-01 -8.916226545922585345e-01 -1.046757375740911433e+00 1.265682200035296578e-01 -9.600870236715883799e-01 2.170832457918552283e+00