1.683467000000000047e+00 1.922366999999999937e+00 9.906316999999999595e+00 1.607796999999999921e+00 2.964697000000000138e+00 4.903607000000000049e+00 7.876356999999999609e+00 1.634110000000000007e-01 9.636186999999999614e+00 4.082696999999999576e+00 6.595957000000000292e+00 1.008131700000000031e+01 9.807866999999999891e+00 6.799387000000000292e+00 1.209871700000000061e+01 4.933806999999999832e+00 3.815967000000000109e+00 2.604786999999999964e+00 8.387487000000000137e+00 3.113586999999999883e+00 1.174021699999999946e+01 4.160639999999999894e-01 1.135777000000000037e+00 1.204121699999999962e+01 1.746437000000000017e+00 6.965537000000000312e+00 6.969256999999999813e+00 4.012866999999999962e+00 9.799637000000000597e+00 9.602876999999999441e+00 1.180666999999999911e+00 9.859427000000000163e+00 2.041256999999999877e+00 1.245266999999999902e+00 5.599366999999999983e+00 2.469056999999999835e+00 3.200146999999999853e+00 4.110726999999999798e+00 9.614416999999999547e+00 6.532386999999999944e+00 7.706866999999999912e+00 1.020031700000000008e+01 1.188466999999999940e+00 4.324766999999999584e+00 8.061599999999999322e-02 8.386526999999999177e+00 1.054351699999999958e+01 6.701046999999999976e+00 2.892647000000000190e+00 1.188891699999999929e+01 9.725006999999999735e+00 9.014207000000000747e+00 7.691120000000000179e-01 1.199111699999999914e+01 6.194526999999999894e+00 9.501447000000000642e+00 7.015566999999999886e+00 4.806256999999999557e+00 1.001192000000000082e+00 4.778966999999999743e+00 9.626980000000000537e-01 8.122547000000000850e+00 4.682566999999999702e+00 3.716570000000000151e-01 6.514466999999999786e+00 4.298719999999999763e-01 1.085601699999999958e+01 9.737866999999999607e+00 2.755946999999999925e+00 1.435907000000000044e+00 6.130047000000000246e+00 9.299127000000000365e+00 1.858357000000000037e+00 8.796917000000000542e+00 1.175991699999999973e+01 1.044591699999999967e+01 3.984267000000000003e+00 2.326116999999999990e+00 3.822277000000000147e+00 9.447857000000000838e+00 6.223417000000000421e+00 8.323226999999999265e+00 5.392787000000000219e+00 6.525916999999999746e+00 7.918097000000000385e+00 5.298746999999999652e+00 3.619209999999999927e-01 1.107041700000000084e+01 4.701076999999999728e+00 1.208531699999999987e+01 1.047601700000000058e+01 3.306846999999999870e+00 9.959846999999999895e+00 9.018867000000000189e+00 1.023031699999999944e+01 9.556566999999999368e+00 1.075921699999999959e+01 1.160976999999999926e+00 9.952906999999999726e+00 6.425100000000000255e-02 1.172041699999999942e+01 3.323847000000000218e+00 3.764886999999999873e+00 1.150431700000000035e+01 2.303769999999999984e-01 6.057367000000000168e+00 2.425177000000000138e+00 7.156336999999999726e+00 2.961787000000000170e+00 6.707357000000000014e+00 1.200851699999999944e+01 9.184127000000000152e+00 5.406896999999999842e+00 1.009731700000000032e+01 6.642916999999999739e+00 2.345797000000000132e+00 9.705546999999999258e+00 9.034266999999999825e+00 8.047567000000000803e+00 6.039376999999999995e+00 9.481576999999999700e+00 8.172376999999999114e+00 8.427137000000000100e+00 9.143800000000000539e-02 1.011901699999999948e+01 4.827436999999999756e+00 9.941826999999999970e+00 2.081176999999999833e+00 4.122967000000000048e+00 9.502646999999999622e+00 1.448426999999999909e+00 8.052906999999999371e+00 5.224787000000000070e+00 4.027346999999999788e+00 1.078551700000000046e+01 6.331046999999999869e+00 8.442156999999999911e+00 4.475196999999999647e+00 6.104106999999999950e+00 1.465586999999999973e+00 2.542177000000000131e+00 5.507316999999999574e+00 6.299986999999999782e+00 5.415377000000000329e+00 2.269026999999999905e+00 6.141517000000000337e+00 4.761687000000000225e+00 7.362167000000000350e+00 5.706750000000000433e-01 7.071386999999999645e+00 2.392507000000000161e+00 4.519927000000000028e+00 6.790696999999999761e+00 6.537556999999999618e+00 6.218810000000000171e-01 2.546579999999999955e-01 1.069661699999999982e+01 7.019116999999999607e+00 4.656087000000000309e+00 7.600907000000000302e+00 3.528166999999999831e+00 2.144597000000000087e+00 4.617397000000000418e+00 5.347496999999999723e+00 7.573426999999999687e+00 2.678147000000000055e+00 3.704020000000000090e-01 3.969536999999999871e+00 5.917806999999999817e+00 4.003777000000000363e+00 5.085377000000000258e+00 1.674427000000000110e+00 2.926906999999999925e+00 2.311567000000000149e+00 6.990617000000000303e+00 5.216846999999999568e+00 9.386117000000000488e+00 2.016596999999999973e+00 3.534329999999999972e-01 1.596616999999999953e+00 3.802017000000000202e+00 1.983206999999999942e+00 6.887957000000000107e+00 4.350476999999999705e+00 1.016361700000000035e+01 2.402877000000000152e+00 1.138181699999999985e+01 8.742286999999999253e+00 1.160321700000000078e+01 8.771236999999999284e+00 6.966766999999999932e+00 2.287176999999999794e+00 1.191821700000000028e+01 1.127651700000000012e+01 7.002476999999999840e+00 8.415936999999999557e+00 4.299706999999999724e+00 4.404526999999999859e+00 2.734596999999999944e+00 1.012601699999999916e+01 4.133287000000000155e+00 5.444567000000000156e+00 1.825410000000000088e-01 1.040961700000000079e+01 3.720667000000000169e+00 4.454487000000000307e+00 6.403569999999999540e-01 8.511476999999999293e+00 2.425899999999999931e-02 4.660936999999999664e+00 4.905217000000000382e+00 7.722107000000000276e+00 2.995986999999999956e+00 1.203701700000000052e+01 7.685697000000000223e+00 2.631237000000000048e+00 1.265387000000000040e+00 9.255297000000000551e+00 7.043287000000000297e+00 1.195561700000000016e+01 4.868966999999999601e+00 4.390236999999999945e+00 5.839717000000000269e+00 1.070021700000000031e+01 4.466637000000000413e+00 6.374797000000000047e+00 9.954007000000000716e+00 1.035611699999999935e+01 4.866736999999999647e+00 9.210197000000000855e+00 1.164199999999999957e-02 1.395887000000000100e+00 9.874767000000000294e+00 9.627706999999999127e+00 7.633906999999999776e+00 1.159071699999999971e+01 2.389317000000000135e+00 1.179351699999999958e+01 8.671867000000000658e+00 9.005076999999999998e+00 1.078291699999999942e+01 5.647696999999999967e+00 6.949696999999999569e+00 3.326926999999999968e+00 4.249207000000000178e+00 3.903477000000000086e+00 4.169557000000000180e+00 7.887326999999999977e+00 7.953236999999999668e+00 6.988507000000000247e+00 7.207847000000000115e+00 7.653736999999999568e+00 8.339076999999999629e+00 3.543447000000000013e+00 8.209336999999999662e+00 7.609176999999999857e+00 1.004831700000000083e+01 3.774830000000000130e-01 5.673589999999999467e-01 3.838797000000000015e+00 8.757367000000000345e+00 2.453686999999999951e+00 1.147521700000000067e+01 6.750626999999999711e+00 1.131101699999999965e+01 5.781916999999999973e+00 9.099166999999999561e+00 6.314337000000000089e+00 5.963016999999999790e+00 2.266407000000000060e+00 9.874136999999999276e+00 1.178071699999999922e+01 1.826106999999999925e+00 5.365897000000000361e+00 6.759947000000000372e+00 1.270999999999999908e-01 1.545496999999999899e+00 1.459676999999999891e+00 6.609666999999999959e+00 1.080791699999999977e+01 1.125471699999999942e+01 8.610087000000000046e+00 8.855477000000000487e+00 8.577436999999999756e+00 1.116861699999999935e+01 9.754747000000000057e+00 3.517507000000000161e+00 6.295097000000000165e+00 4.347087000000000145e+00 2.089046999999999876e+00 9.256506999999999152e+00 4.784987000000000101e+00 2.143517000000000117e+00 4.224660000000000082e-01 1.093411700000000053e+01 1.316116999999999981e+00 6.255696999999999619e+00 1.197151700000000041e+01 3.402236999999999956e+00 6.536946999999999619e+00 8.158846999999999738e+00 6.627957000000000320e+00 4.169227000000000238e+00 5.033166999999999724e+00 1.161931700000000056e+01 6.883637000000000228e+00 1.141491700000000087e+01 1.975667000000000062e+00 2.204366999999999965e+00 1.565326999999999913e+00 1.099791699999999928e+01 1.159471699999999927e+01 2.428446999999999800e+00 2.171787000000000134e+00 1.675300000000000053e-02 9.459747000000000128e+00 1.005281699999999923e+01 4.403857000000000355e+00 7.349486999999999881e+00 2.010097000000000023e+00 4.894127000000000116e+00 8.284907000000000465e+00 9.411286999999999736e+00 2.258166999999999813e+00 2.498727000000000142e+00 7.679066999999999865e+00 2.460367000000000193e+00 1.086081700000000083e+01 1.116891700000000043e+01 1.124941699999999933e+01 1.079221700000000084e+01 8.550060000000000437e-01 8.596387000000000000e+00 3.010120000000000018e-01 7.970546999999999827e+00 1.207701699999999967e+01 8.632217000000000695e+00 7.770977000000000245e+00 7.412246999999999808e+00 1.166521700000000017e+01 1.949507000000000101e+00 7.228080000000000060e-01 6.278100000000000347e-02 1.048641699999999943e+01 2.571317000000000075e+00 4.694276999999999589e+00 3.656896999999999842e+00 3.968287000000000120e+00 6.503100000000000547e-02 4.073446999999999818e+00 1.148481699999999961e+01 4.754216999999999693e+00 3.756707000000000019e+00 3.446500000000000258e-02 4.757076999999999778e+00 2.427807000000000048e+00 7.903207000000000093e+00 4.074027000000000065e+00 6.580777000000000321e+00 8.560797000000000878e+00 2.521616999999999997e+00 1.955276999999999932e+00 7.498466999999999771e+00 6.032117000000000395e+00 8.961700000000000221e-02 7.676576999999999984e+00 7.799837000000000131e+00 7.813196999999999726e+00 5.039677000000000184e+00 2.948077000000000059e+00 1.155701700000000010e+01 1.120391700000000057e+01 1.097561699999999973e+01 1.475916999999999923e+00 4.725327000000000055e+00 3.905587000000000142e+00 7.769979999999999665e-01 3.785626999999999853e+00 6.990577000000000041e+00 2.600576999999999916e+00 8.301337000000000188e+00 5.609206999999999610e+00 3.501107000000000191e+00 6.247716999999999743e+00 9.109636999999999318e+00 9.687196999999999392e+00 5.825287000000000326e+00 6.405717000000000105e+00 1.023641699999999943e+01 1.168561700000000059e+01 1.008881700000000059e+01 6.087126999999999732e+00 9.289856999999999587e+00 2.634107000000000198e+00 6.374446999999999974e+00 2.235367000000000104e+00 6.609257000000000382e+00 8.662590000000000012e-01 9.887746999999999176e+00 4.041376999999999775e+00 8.696927000000000518e+00 8.862216999999999345e+00 7.707856999999999736e+00 2.851106999999999836e+00 1.059601699999999980e+01 1.186701700000000059e+01 7.342137000000000135e+00 4.113607000000000014e+00 7.111896999999999913e+00 1.801887000000000016e+00 6.255117000000000260e+00 8.420797000000000310e+00 3.888546999999999976e+00 6.984716999999999842e+00 1.279806999999999917e+00 1.298259999999999970e-01 7.018036999999999637e+00 6.156747000000000192e+00 4.440216999999999636e+00 2.522257000000000193e+00 7.134686999999999557e+00 1.151631700000000080e+01 3.769026999999999905e+00 2.611066999999999805e+00 3.743787000000000198e+00 1.203491700000000009e+01 9.450907000000000835e+00 5.820407000000000330e+00 7.176416999999999824e+00 4.998866999999999727e+00 2.309067000000000203e+00 2.084747000000000128e+00 8.661929999999999907e-01 8.055056999999999690e+00 6.379286999999999708e+00 8.751136999999999944e+00 2.241370000000000029e-01 2.372476999999999947e+00 1.054361699999999935e+01 4.135157000000000416e+00 1.098046999999999995e+00 4.283267000000000380e+00 1.902627000000000068e+00 5.735407000000000366e+00 4.449406999999999890e+00 6.161039999999999850e-01 9.634747000000000838e+00 8.584706999999999866e+00 1.428156999999999899e+00 4.649976999999999805e+00 3.336136999999999908e+00 1.193281700000000001e+01 1.350676999999999905e+00 2.624119999999999786e-01 3.590157000000000043e+00 5.054026999999999603e+00 5.675926999999999722e+00 4.900136999999999965e+00 8.116077000000000652e+00 6.489456999999999809e+00 4.791936999999999891e+00 1.056871699999999947e+01 1.106841700000000017e+01 1.209841699999999953e+01 6.527716999999999992e+00 1.024181699999999928e+01 2.423417000000000154e+00 2.805667000000000133e+00 9.730116999999999905e+00 3.428367000000000164e+00 4.960906999999999734e+00 1.398767000000000094e+00 1.732356999999999925e+00 1.127361699999999978e+01 3.877447000000000088e+00 4.389077000000000339e+00 2.046466999999999814e+00 9.048686999999999259e+00 7.098680000000000545e-01 1.037681700000000085e+01 1.084121700000000033e+01 2.301987000000000005e+00 1.065171699999999966e+01 1.169151699999999927e+01 3.443829999999999947e-01 1.079011700000000040e+01 2.472227000000000174e+00 1.138471700000000020e+01 4.921057000000000237e+00 7.663717000000000112e+00 7.684857000000000049e+00 1.129081700000000055e+01 8.652397000000000560e+00 9.866526999999999603e+00 1.180061700000000080e+01 1.823647000000000018e+00 5.826177000000000383e+00 6.081586999999999854e+00 2.399837000000000220e+00 1.006361700000000070e+01 6.795327000000000339e+00 2.928237000000000201e+00 6.690026999999999724e+00 1.066951700000000081e+01 6.100076999999999749e+00 5.439567000000000263e+00 4.784097000000000044e+00 7.575300000000000089e-02 1.171371700000000082e+01 4.638666999999999874e+00 3.499756999999999785e+00 8.128757000000000232e+00 6.731616999999999962e+00 1.088991700000000051e+01 4.729556999999999789e+00 3.254197000000000006e+00 9.409009999999999874e-01 9.009577000000000169e+00 8.555446999999999136e+00 1.204961699999999958e+01 1.096991700000000058e+01 8.365266999999999342e+00 7.088517000000000401e+00 6.163267000000000273e+00 6.775037000000000198e+00 1.080541700000000027e+01 4.106217000000000006e+00 6.847347000000000072e+00 6.181886999999999688e+00 1.891686999999999896e+00 1.204781700000000022e+01 4.218357000000000134e+00 4.872797000000000267e+00 1.004811699999999952e+01 6.318096999999999852e+00 9.567676999999999765e+00 5.130436999999999692e+00 7.296396999999999800e+00 1.022191699999999948e+01 7.281616999999999784e+00 8.175149999999999917e-01 2.578006999999999938e+00 9.171867000000000658e+00 9.525166999999999717e+00 2.713337000000000110e+00 8.747496999999999190e+00 7.362897000000000247e+00 2.190526999999999891e+00 2.201207000000000136e+00 4.893727000000000160e+00 1.001691699999999940e+01 7.111686999999999870e+00 1.101681699999999964e+01 5.984167000000000236e+00 1.202771700000000088e+01 8.481327000000000282e+00 5.504787000000000319e+00 5.023107000000000433e+00 4.136007000000000211e+00 6.002246999999999666e+00 2.736560000000000104e-01 3.599057000000000173e+00 9.365646999999999167e+00 4.884376999999999747e+00 2.160096999999999934e+00 1.927337000000000078e+00 1.359007000000000076e+00 9.156617000000000672e+00 2.135367000000000015e+00 1.963000000000000161e-02 6.153647000000000311e+00 1.608737000000000084e+00 4.098766999999999605e+00 8.491467000000000098e+00 8.207717000000000596e+00 1.765006999999999993e+00 1.111541700000000077e+01 3.678339999999999943e-01 2.517876999999999921e+00 1.130311700000000030e+01 3.991786999999999974e+00 8.967826999999999771e+00 8.204976999999999521e+00 1.190851699999999980e+01 6.196806999999999732e+00 1.148921700000000001e+01 8.560377000000000791e+00 1.033611699999999978e+01 7.446246999999999616e+00 3.418096999999999941e+00 4.947917000000000343e+00 7.098287000000000013e+00 6.801416999999999824e+00 9.141987000000000307e+00 7.403557000000000166e+00 1.040641699999999936e+01 1.653616999999999893e+00 5.465747000000000355e+00 8.064057000000000031e+00 5.285830000000000251e-01 3.407007000000000119e+00 5.476976999999999762e+00 4.266637000000000235e+00 4.928996999999999851e+00 1.075251699999999921e+01 3.367576999999999821e+00 8.598297000000000523e+00 4.034397000000000233e+00 3.070396999999999821e+00 1.255546999999999969e+00 4.307376999999999789e+00 1.593466999999999967e+00 9.608567000000000746e+00 1.140291700000000041e+01 4.313397000000000148e+00 1.084441699999999997e+01 8.358166999999999902e+00 2.321127000000000162e+00 1.129437000000000024e+00 5.338086999999999804e+00 3.882556999999999814e+00 5.331686999999999621e+00 1.194471700000000070e+01 5.464356999999999687e+00 8.160377000000000436e+00 4.695416999999999952e+00 8.976556999999999675e+00 6.321987000000000023e+00 8.825777000000000427e+00 9.552077000000000595e+00 1.547657000000000060e+00 1.653016999999999959e+00 5.054337000000000302e+00 5.030227000000000004e+00 6.573356999999999672e+00 2.440126999999999935e+00 5.393487000000000364e+00 6.780516999999999683e+00 1.059171699999999916e+01 1.208191700000000068e+01 1.977287000000000017e+00 6.862967000000000262e+00 3.745716999999999963e+00 1.552237000000000089e+00 1.188661699999999932e+01 7.847857000000000305e+00 1.078081700000000076e+01 9.702007000000000048e+00 1.080001700000000042e+01 8.138076999999999117e+00 8.165447000000000344e+00 7.858996999999999566e+00 3.375000000000000222e-02 1.033990000000000048e-01 9.579496999999999929e+00 6.730527000000000371e+00 3.425596999999999781e+00 1.247366999999999893e+00 9.492036999999999836e+00 4.628387000000000029e+00 8.168706999999999496e+00 6.010149999999999659e-01 8.217826999999999771e+00 3.736857000000000095e+00 1.206441700000000061e+01 7.119506999999999586e+00 2.017396999999999885e+00 8.919247000000000369e+00 1.059261700000000062e+01 4.499336999999999698e+00 5.873967000000000382e+00 6.271646999999999750e+00 5.261226999999999876e+00 7.509816999999999965e+00 4.879936999999999969e+00 1.010961700000000008e+01 8.220216999999999885e+00 1.200541699999999956e+01 6.104366999999999877e+00 8.641507000000000716e+00 2.968067000000000011e+00 1.023381700000000016e+01 7.718766999999999712e+00 5.665816999999999659e+00 1.490717000000000070e+00 5.859886999999999624e+00 1.194361699999999971e+01 1.018931700000000085e+01 1.198461700000000008e+01 4.275579999999999936e-01 9.872816999999999510e+00 4.297316999999999609e+00 1.093761699999999948e+01 9.805526999999999660e+00 1.025351700000000044e+01 1.938077000000000050e+00 7.548987000000000336e+00 6.370906999999999876e+00 2.923846999999999863e+00 1.103991700000000087e+01 5.721296999999999855e+00 5.318236999999999881e+00 2.527397000000000116e+00 3.034227000000000007e+00 3.737636999999999876e+00 9.205290000000000417e-01 4.138797000000000281e+00 7.347686999999999635e+00 9.659527000000000641e+00 1.880476999999999954e+00 6.619076999999999877e+00 9.107177000000000078e+00 6.051147000000000276e+00 1.144257000000000080e+00 2.637687000000000115e+00 3.702347000000000055e+00 5.677207000000000114e+00 8.390527000000000513e+00 9.553687000000000040e+00 3.554837000000000025e+00 5.384426999999999630e+00 1.090621699999999983e+01 9.807276999999999134e+00 6.078096999999999639e+00 8.276056999999999775e+00 7.391526999999999958e+00 2.197106999999999921e+00 6.332020000000000426e-01 9.229877000000000109e+00 1.486687000000000092e+00 1.973260000000000014e-01 3.031616999999999784e+00 2.037309999999999954e-01 6.496466999999999992e+00 9.877917000000000058e+00 4.176230000000000220e-01 2.596887000000000167e+00 2.795157000000000114e+00 4.219807000000000308e+00 9.359757000000000104e+00 1.103051699999999968e+01 1.912857000000000030e+00 6.889617000000000324e+00 8.346636999999999418e+00 1.159511700000000012e+01 6.177726999999999968e+00 7.781517000000000017e+00 3.091356999999999911e+00 2.753906999999999883e+00 9.614947000000000799e+00 9.134086999999999179e+00 8.844257000000000701e+00 9.633656999999999471e+00 1.083641700000000085e+01 9.470126999999999740e+00 4.216507000000000005e+00 2.423697000000000212e+00 1.036841700000000088e+01 2.763437000000000143e+00 4.447687000000000168e+00 1.011141699999999943e+01 1.119987000000000066e+00 2.245969999999999911e-01 6.445346999999999937e+00 1.899337000000000053e+00 3.347996999999999890e+00 4.607807000000000208e+00 7.773717000000000432e+00 3.865127000000000201e+00 8.428067000000000419e+00 2.697807000000000066e+00 7.992847000000000257e+00 3.992526999999999937e+00 5.950809999999999711e-01 1.038081700000000041e+01 1.089491699999999952e+01 1.001811700000000016e+01 5.232626999999999917e+00 1.194141699999999950e+01 1.196821699999999922e+01 2.882106999999999974e+00 1.058201700000000045e+01 9.116277000000000186e+00 1.095156999999999936e+00 1.203051699999999968e+01 2.816839999999999899e-01 9.405930000000000124e-01 1.080211700000000086e+01 1.016281700000000043e+01 1.600877000000000105e+00 1.006311700000000009e+01 4.319379999999999886e-01 5.393227000000000437e+00 2.785086999999999868e+00 9.945527000000000228e+00 1.846897000000000011e+00 4.570287000000000432e+00 9.609386999999999901e+00 1.035436999999999941e+00 8.497336999999999918e+00 2.505237000000000158e+00 8.512237000000000720e+00 6.005817000000000405e+00 1.116521700000000017e+01 2.758716999999999864e+00 8.150696999999999193e+00 5.029099999999999682e-01 6.244017000000000372e+00 2.914849999999999941e-01 1.855677000000000021e+00 6.527897000000000283e+00 5.982136999999999816e+00 6.328209999999999669e-01 2.344367000000000090e+00 7.455936999999999593e+00 4.471737000000000073e+00 9.542306999999999206e+00 1.051511700000000005e+01 8.099156999999999940e+00 1.130751700000000071e+01 1.021941699999999997e+01 1.207531700000000008e+01 1.918449999999999878e-01 1.019251700000000049e+01 6.193157000000000245e+00