-8.072696809335392027e+04
-8.071449153882631799e+04
-8.070993679371962207e+04
-8.072544557971507311e+04
-8.072433807921227708e+04
-8.071061430003434361e+04
-8.072010256751027191e+04
-8.070646419394537224e+04
-8.072079637370398268e+04
-8.072000166725649615e+04
-8.071261807152873371e+04
-8.071719747425231617e+04
-8.071620375259662978e+04
-8.071800708736968227e+04
-8.072095507131093473e+04
-8.070695503993092279e+04
-8.071361988788348390e+04
-8.070388039664644748e+04
-8.071096836091364094e+04
-8.072963581744958356e+04
-8.072132629118206387e+04
-8.071484416335522837e+04
-8.070754050500561425e+04
-8.072142127303224697e+04
-8.072908977237361250e+04
-8.072472398815701308e+04
-8.072701652986125555e+04
-8.071844069848739309e+04
-8.072005372691422235e+04
-8.072386248341860482e+04
-8.072719904371508164e+04
-8.071574339843609778e+04
-8.072469595334246696e+04
-8.072291681842379330e+04
-8.072204622663681221e+04
-8.072023406563457684e+04
-8.071858152891669306e+04
-8.071718925272415800e+04
-8.071842720701695362e+04
-8.072279523041132779e+04
-8.072391989532092703e+04
-8.071096121735380439e+04
-8.071333024031590321e+04
-8.072998196054779692e+04
-8.071568409821375099e+04
