1.936958210167449845e+00 -2.514763814027210831e+00 -4.761730756609861892e+00 2.469677459484642679e+00 2.230492340604585344e+00 -5.947856847611184827e-01 2.224719699309693155e+00 8.033001114949211985e-01 4.576944528692334924e-01 4.150603653025441098e+00 -1.849907849019476469e+00 -5.510930739354289898e+00 -7.374968344074911419e-01 -2.056592678592471746e+00 1.568123146780006749e+00 2.405211156151597418e+00 -4.069765077628608729e+00 6.221098287560138385e-01 -6.820473906064192793e-01 -3.948254732182050031e+00 -3.303060508894563707e+00 -7.350255926887138358e+00 -1.422279879003650827e+00 -3.363306603149827101e-01 -5.481474122221151601e-01 1.007183466831805957e-01 4.236561295239542613e-01 8.959529068944400709e-01 7.666762865969322105e-01 2.294151831698927335e+00 2.795581267177450702e+00 8.878755285352587512e-01 1.946726346105252803e-01 2.846313250508244685e+00 -8.518975648047725224e-01 -1.153943590071264458e+00 -3.152175821622829499e+00 2.004966465508264850e+00 -3.098225331088692691e+00 3.385139384558926157e+00 -3.809338016894755263e+00 1.194155132617076509e+00 2.613995034518976190e+00 2.196676674811479213e+00 8.543323996997765901e-01 4.086078214314798451e+00 1.072078630207604188e+00 -1.211392323855815745e+00 5.367749077790509027e+00 -4.039681111272259706e+00 2.136478917299643232e+00 1.302971426486428941e+00 -2.520180100394492362e-01 -2.451565064657456272e+00 1.022988553491329444e+00 1.695126911695060912e+00 -9.586662319472176730e-01 1.394641031955800470e+00 1.737532633860087827e+00 1.149747549365196297e+00 3.439097588403184691e+00 -1.976199932520658509e+00 2.538195307514148347e+00 -1.336798919355055570e+00 4.420288742787731984e+00 -2.396482260197490888e+00 -8.865426685462725054e-01 -3.060699563127168954e+00 -2.778775507084838114e+00 -8.852802567897285480e-01 -1.517508405763059010e+00 3.382977086621546281e+00 -1.622338975182321397e+00 -1.263499333270926339e+00 1.001695703790732495e+01 -1.549199825948718745e+00 -2.337707865513399597e+00 3.921061714459219250e+00 -2.700729664172644373e+00 -2.769537018442041365e+00 1.233799489758625079e+00 -1.259988234503642834e+00 2.159739175301884639e+00 1.600743763724963520e+00 -2.840015075683744450e-01 6.224620184961591640e+00 -2.263988675358664437e+00 -1.954286418465622344e+00 -7.433782333750959204e+00 -1.034404766691748634e+00 -1.162685341542239792e+00 2.622008135293811826e+00 -1.352445111826077184e+00 4.495253889637419675e+00 1.268936702685873108e+00 -3.725436228938358241e+00 6.302232025624284750e-01 -2.221041993043786356e+00 4.189064274173684765e+00 -8.181883426913417745e-01 4.248055155761850443e+00 -1.533088263767036441e+00 5.765701372665746227e+00 3.287345925073799080e-01 -2.281413557143692206e+00 4.103234158686925315e-01 4.751898857308388457e+00 -1.226749524307620520e+00 -1.928135211829861584e+00 2.264483869868461507e+00 1.990998175098995571e+00 1.559538232614834152e+00 -2.096016949285221198e+00 5.882314280405859241e-01 5.623281786141964389e+00 -5.057411758364133147e-02 1.775446124210382948e+00 -3.408585276224756822e+00 3.996483489268096712e+00 -6.875341252061433206e-01 1.647144466312226552e+00 1.707546883652617808e-01 -2.774909596051968186e-01 -4.141993542047204713e+00 6.999505490410443898e+00 7.369738719812568561e-01 1.150283367308299498e+00 4.260580542957734251e-01 2.953889244110067924e+00 6.468356156813304114e-01 4.774189295118026477e-01 2.870040420883170906e-01 2.084055147948878250e+00 2.562090628049721985e+00 -1.954766700575851113e+00 -1.991571531151356822e-01 -3.478257549669105497e+00 -4.012058719286001107e+00 2.153470311055845077e+00 3.458569068473770436e+00 3.748154498349399177e-01 -5.669155412537595140e+00 1.929273182183113056e+00 4.635256124769138175e+00 1.918527512742584928e+00 -2.434986590103088933e+00 -1.513853839427516501e+00 -2.734923796382376704e+00 -1.573199019060594672e+00 -6.783907673881778289e-01 -8.617577462433579916e-01 -1.852981860213211318e+00 -7.741653965041843666e-01 -4.109533361952774633e-01 -1.620652331369097698e+00 3.713890946348573419e+00 -3.135909993238718219e+00 -3.804540852219889135e+00 2.659837293453445883e-01 -1.056218521935880839e+00 -1.775974228843364644e+00 1.757233970572292803e+00 -2.166540772166977824e+00 1.381447157882724763e+00 -1.203911441479359912e+00 -3.397158778610843033e+00 -1.420972730048402966e+00 2.849329668986405828e+00 1.563369690862494998e-01 1.799366127338345223e+00 -9.773057029660363604e-01 -3.052299254184236421e+00 9.014082740330034427e-02 2.210078294037158830e+00 -6.408218048899740005e+00 2.221538730215607327e+00 -1.962756661420322457e+00 1.270194486456344141e+00 9.495753246380779500e-02 1.621692599794143652e-01 -3.087434410228785175e+00 -8.434247507466983984e-02 4.299873173157743977e+00 -1.049601016072352566e+00 -2.700090487873913148e+00 6.960362498426789779e-01 -1.009769996825865129e-01 4.197392592222151109e+00 2.529531203365062098e+00 9.802640145079492828e-02 8.648559258088067692e-01 -2.160518219624150582e+00 3.676438711943540660e+00 4.021817599251658049e-01 -7.808615781309515835e-01 1.792217945738461493e+00 -5.190528578660773995e+00 -1.266061694893271694e+00 -1.925860299564709388e+00 2.141158325439988630e+00 2.993400418096852533e+00 -2.429111618893919078e-01 -4.245072161627549079e+00 2.580148515485383709e-01 1.670535336365857493e+00 5.741993742676461121e-01 9.691583905950871269e-01 -8.004425872052616242e-01 -2.302903867583398156e+00 8.297670496249860694e-02 5.577325370217697476e+00 2.202526963428260487e+00 9.925646872689612987e-01 -4.944719783269090563e+00 5.600850451867441793e-01 -8.094671600473568596e-01 -2.469755106806532208e+00 1.806835182639281667e+00 -1.045228083454165624e+00 -3.734724082765931819e+00 -1.691812759446211789e+00 -6.764896935535780198e-01 1.406376576195247585e+00 4.004595834633160933e+00 -2.131248264595951181e+00 -9.222676357047751017e-01 2.419059118922972207e+00 -3.149949246101104716e+00 1.545203302864458728e+00 -5.386502705799124380e-01 3.345068738477999126e+00 8.766252543465856917e+00 -9.661762706359326103e+00 -2.472652226088148275e+00 -4.276593888990537273e+00 3.161283183993561785e+00 1.962628620472306684e+00 -4.268154499276322511e+00 -2.757442033950934679e+00 2.169305736735180012e+00 -2.796735692592294598e+00 -1.304548027075253191e+00 -4.488162272311759793e+00 3.118859978325592586e+00 -3.894005993656551201e+00 2.009470010177841548e+00 -1.127252965947677543e+00 -5.435194775713132032e+00 -3.257352461556207501e+00 1.386601705926551631e+00 -5.951512956608752125e-01 1.527420523489795734e+00 -9.098440642024946401e-01 -3.416915136935246622e+00 5.907487953538894665e+00 -5.280467831559566783e+00 2.878901471550691760e+00 -4.043788706022267476e+00 2.589968073490662714e+00 -2.118749616875155617e+00 6.003773203784941170e-01 1.279256597407697038e+00 1.758277838542061655e+00 -9.195834037825109109e-01 4.434484318735246511e+00 7.567898799039337598e-01 -1.101706482825438815e+00 -2.642045772327311859e+00 -1.459410211266281676e+00 -7.449880011974423510e-01 2.672800282443553055e+00 -1.170300949735483709e+00 -3.905032941806174107e-01 1.992440049871031738e+00 6.177116993247636634e-01 -1.720809663296111847e+00 -1.919044304520722388e+00 -3.483192011264134580e-01 -6.577571485926272388e-01 -4.599847403325616035e+00 5.925308271022815543e-01 2.368443863685349537e+00 -3.827587194421428585e+00 -1.084182870670856308e-01 1.055792747217176641e+00 -3.941286527818333774e+00 -4.499481812025322824e+00 4.323613713270215153e-01 9.559619454186375764e-02 -1.770554342931359937e+00 5.798475741592457045e-01 4.255129803805244748e+00 1.593058221519951800e+00 1.100823051706195432e+00 1.144065410909062219e+00 -1.229822507060005732e+00 -4.935573340127076492e+00 4.041853179402458807e+00 -8.577457965388550487e-02 -5.304587352309337867e-01 1.490375551859175474e+00 1.702067862363015216e+00 1.948107542837666850e+00 -1.373370293744218540e-01 6.918062705720764427e-01 2.187103942730086181e-01 2.620838283258725365e+00 -3.990181714898872745e+00 -2.165140035048922940e+00 -5.779341590284517993e-01 2.453615776708412355e+00 -3.790965940626814135e+00 5.091704106722746204e+00 1.310810206452520221e+00 -1.601941383676487030e-01 -1.790139465771068084e+00 -3.954187296106794203e-01 9.394991705160918860e-01 -1.767534839129150104e+00 7.405137671063272142e-01 -1.494291342297497716e+00 2.682515967872529661e+00 1.185371215050770588e-01 2.230549933320158829e+00 3.046958044035470436e+00 1.587098403899445787e+00 -3.331208948631105282e-01 1.883060684362813486e+00 2.978662339337462939e+00 3.980026370792973278e+00 -2.883213726129256305e+00 -1.440458608297881860e+00 2.003362611223678258e-01 3.718350782260795295e+00 -3.285950330162491273e+00 4.533582356072248132e+00 -1.566397422195501044e+00 3.515145169773248313e+00 1.316512399514970122e+00 2.162504139870086828e+00 -1.759429178632857083e+00 7.577766693788045016e-01 -6.897709851413634796e-01 -1.100262551170703595e+00 -1.815928146831120582e+00 2.903953274383808125e-01 -6.684868771922375310e-05 2.052777675406402658e+00 1.532958680156995879e+00 1.987894853326799549e-01 1.228138948570830724e+00 3.387196267257979176e+00 -1.570869085183242309e+00 -1.245965436702848761e+00 -1.846057878827524146e+00 -2.847983953480550223e+00 -1.017632430942995381e+00 2.523573442627254693e+00 2.287847486226330052e+00 2.024651347158877290e-01 3.524391371726166566e-01 1.605182516589519937e+00 -4.686841714420039828e+00 1.354280365414306964e+00 9.819074637844926734e-01 -2.320418737986509772e+00 1.125009421143685406e+00 -3.525268632197312346e+00 -1.428090572628475829e+00 -9.417128905209477541e-01 -1.777495807819989171e+00 4.225613537073832915e-01 -5.891575394758346018e-01 5.984520781721806015e-01 2.519495672676382192e+00 -1.337585162766768088e+00 6.501513105922038793e-01 -2.457441578528651416e+00 1.524113056109718256e+00 2.233518529275567488e+00 1.131126590290669087e+00 9.213250692079339998e-01 2.004288208438252117e-01 1.781521641482710860e+00 -6.784303623801345440e-01 -9.624627231889947288e-01 8.883537537627885783e-01 2.487231924879711453e+00 -4.384580230690821701e+00 2.188221344256346956e+00 -7.039988027251856018e+00 1.279991418751933896e+00 5.055929260158791294e+00 -4.841063179650312520e+00 -5.810883886474496052e-01 -3.777156544406046201e-02 1.719679406252981879e+00 -1.790304530607667255e+00 1.337044202616917365e+00 -1.683116259394615288e-01 4.391445590919585307e+00 4.966505256376111177e+00 -1.056158358116933593e+00 1.804811724284088176e-02 -2.532145501275558264e+00 7.416989943395889462e+00 3.265357334800247369e+00 -2.192161303066382683e+00 -2.143363817914048397e+00 -3.611844367662479627e+00 4.762175557493532274e+00 1.384581332895407080e+00 1.506137443982018986e+00 -7.849236643512439215e+00 2.250164880959003799e+00 -2.535208713835122918e+00 -1.288113020089144634e+00 5.295597232252450937e+00 1.654800183718101669e+00 -2.754163362928644165e+00 1.058061488834232344e+00 -1.248913463831266557e-01 3.005922205748013276e+00 -3.150982315436703818e+00 3.223916804841751027e-01 -1.007461145996177976e+00 -4.778210500794675131e-01 2.425424656655866124e-02 -1.713999324679547076e+00 -1.497306732334309665e+00 7.264395472380567875e-02 -2.851709482269210394e+00 2.151630943702217191e+00 -2.943624885221118426e+00 5.667452313662779684e-01 -4.936107101187480611e-02 5.079106728632395429e-01 -1.288252888112680239e+00 2.001825091406135848e-01 -7.072627156141104710e-01 -3.552816462185730106e+00 6.830182392403723046e-01 -2.339236643579471142e+00 -4.330019874436414895e+00 -4.858187756561278547e+00 4.471572999123221592e+00 -1.578018809445150605e+00 7.113235162827159508e-01 -5.580456459906331101e-01 -3.843889018252773848e+00 -4.777259192546361888e+00 3.567486149595376688e+00 4.509601160683988752e+00 -9.895184439916637764e-01 1.621881833002456696e+00 1.434883941962773024e+00 5.246652165766460207e+00 -1.564795110572938963e+00 3.996269059246720268e+00 -2.059499568066908370e+00 -1.268346891571919821e+00 1.449899699886534998e+00 -4.337276556598674837e+00 -2.667843709359509763e-01 -3.322102100481048037e-01 -1.801466204574078356e+00 2.707945208680922367e+00 -2.670283686461261574e+00 -1.603750926230979035e+00 1.786882906237792445e+00 -2.342908179197280560e+00 2.972839818637118547e+00 3.662173716204932816e+00 -7.524745400013205243e-01 -4.038896924743244909e+00 4.617202865319550709e-01 -2.845507466710890387e+00 1.940360294151683568e-02 -9.861950357706689152e-01 -6.368000849926506168e-01 1.280432620090880658e+00 -1.119661011905472625e+00 -1.170764262563445568e+00 -1.423835396544809839e+00 4.215879339700564499e-01 6.221525090720191331e-01 1.722025280971252181e+00 1.332533973078569023e+00 -1.191698700453732496e+00 -1.422491737921653288e+00 7.437996372180643689e+00 -1.129925370794422124e+00 4.036651837277227983e+00 -2.014475434225986739e+00 -2.310406347228194157e+00 3.172875260664749786e-01 2.403954915043150731e+00 2.770236358559719836e+00 5.645885898563208771e-01 -2.751563977417716411e-01 1.561784862742874758e+00 -1.741667482305859105e+00 2.035933348763183215e+00 -2.771764622405115563e+00 3.965987632151261710e+00 -7.285483662252608461e+00 -4.647504347021325088e+00 -4.302705500634341207e-01 -5.756514306090426913e+00 -1.258976248215708749e+00 1.071196741750385151e+00 -1.679035404119693986e+00 1.005995102852428102e+00 5.051227740529430577e+00 2.345892201772932228e+00 4.031212410979582828e+00 1.027722469023200080e+00 4.039373093088075573e-01 -2.643031019140158477e+00 -8.730639162193778446e-01 1.347906085929941600e-01 -2.797380525318447830e+00 1.825113670744416661e+00 -5.422410735517843028e-01 3.316733636636519100e-01 1.769608691110470255e+00 -1.109729353793095230e+00 4.827837938116076866e-01 -2.435200505903790891e+00 6.863442185647410376e-01 1.787172412477684214e+00 -8.020556974619941215e-02 -2.559734468917956640e+00 2.219112122851400137e+00 -1.042504256539944718e+00 5.278041224195360037e+00 2.731858012719438289e+00 -3.017100334776016801e+00 -2.468770374214360519e+00 2.369308782860301221e+00 -6.915059656980147018e-01 -1.899849475173159163e+00 2.430664565331703830e-01 -4.038455723404298148e+00 1.979067227003138196e+00 -5.081225317812421149e-01 3.534634647567450605e-01 2.919983589698877946e+00 1.826768947096479578e-01 -7.426030457078903746e-01 3.982262202286844133e+00 -2.843668613577937432e+00 2.136551422414784795e+00 7.566512974320851903e+00 -5.023231510112620146e-01 -2.855832503639461617e-01 -1.025664557882797340e-02 1.099584808321365514e+00 -2.695626538196294053e+00 -1.765450188513659979e+00 1.456053378701427148e+00 1.272315132519067582e+00 1.558776157574834897e+00 -9.712378990038297299e-01 -5.562119350644273430e-01 -5.598140508911438884e-01 2.340958768619253227e+00 5.204679417409584508e-01 -1.048355059377401144e+00 4.237350623975304487e+00 -1.695346998143859363e+00 -9.799395412621736412e-01 -2.088311866694568530e-01 -1.198933271126976674e+00 -1.684889806501873588e+00 -2.103698891945509519e+00 1.988608077402695962e+00 -5.595111749137083867e-01 3.361640528163594710e-01 1.121388279152002454e+00 4.436316486999427156e+00 2.496721353211792227e+00 4.678230575000453806e-01 -1.854119830566462568e+00 -2.272708829561299382e+00 5.170977394385598558e-01 1.983152710264132423e+00 -9.149854996191152168e+00 -2.849249964781817468e+00 2.687550702499136523e+00 -2.884243710140806716e+00 4.377648021774338538e-01 -1.453456050073197892e+00 -2.377137278412897459e+00 3.632969067202428820e-02 -3.072186738780705806e+00 1.267188866612352749e+00 -6.601477605096015555e-01 4.058543239843249717e-01 -5.247791678781735802e-01 -1.801999965634483170e+00 2.795922195484819017e+00 3.456385687488725544e-01 7.275060409175158060e-01 6.218676308182002899e-01 2.024016798846218990e+00 -1.264368366211276351e+00 1.712678291766080552e+00 -3.717713148624088415e+00 5.055982224888292409e-01 6.596052576977263771e-01 2.276021439148124603e+00 -5.481864929933970565e-01 1.419548852999983346e+00 1.606922125132243862e+00 3.792634586716420841e+00 -8.334699527039562961e-01 -1.824009638955699675e+00 -9.609226322680788357e-01 9.249472396409664787e-01 -1.390573032197748526e+00 1.359758358262560085e+00 -4.441415499210379814e+00 -1.567031456287484081e+00 2.510020128302519637e+00 9.688452302041563602e-01 2.169794760596879701e+00 5.280285283220025327e-01 3.487870390963130340e+00 1.985729470065370927e+00 6.750776435806781217e-01 -4.119192483107527281e+00 4.238956535142589743e+00 3.477067128807028951e+00 -4.912421582687210631e+00 -1.254477331532204976e-01 -7.450923879944191253e-01 2.914094734531488928e+00 3.104756447878860737e+00 4.688149891816636994e-01 3.747679872666592082e+00 -3.319736685377136509e-01 -2.322993440905049223e+00 3.402604375556585570e+00 1.097449764079748702e-01 -4.132580218374989123e+00 3.107077125784067473e+00 1.269562509247060156e+00 1.295768737495019973e+00 3.316610737895250960e+00 -2.416698331805133548e-01 -4.003502601478614586e+00 1.487239319963794326e+00 -4.630408052247471096e-01 -5.958017848144506745e-01 1.054812642611078211e+00 3.809764305834133946e+00 1.018786342137164125e+00 -4.170824352619157516e+00 -3.807544415181181030e+00 4.384934014515058820e+00 1.706882510540823628e+00 1.389059166531245504e+00 -2.610631517085349795e+00 -1.184068179860920500e+00 2.181144125109579779e-01 -2.531133000766949692e-01 3.407740411656121071e-01 -1.077996795953454345e+01 6.714436460721261435e-01 8.826849850441983447e-01 1.645713390174360358e+00 1.530413802037592585e+00 2.787530628293357626e+00 -1.410238373462719741e+00 -4.627356152542750678e+00 -5.309434910610330682e+00 -5.693929536206339126e-01 -3.529168481794717205e-01 -2.660545375322594719e+00 3.876615050436057253e+00 3.740024669481391562e-01 4.709870573118637438e-01 7.483304355834035082e-01 -1.177120030103519399e+00 -1.085668968420922254e-01 3.210919877287109259e+00 -3.774699598022027480e+00 3.013457595515993681e+00 -2.650123664907167775e+00 -1.697349887672062463e-01 -1.045021366742910907e+00 -3.641881539937425138e+00 2.181942709817487280e+00 2.303131667342318778e+00 1.238454729527256548e+00 -1.671862539927421620e+00 1.944977995811057736e-01 -6.418409902673548606e-01 2.286215864025305855e+00 -5.925190000267620549e-01 -4.961057088326993880e-01 -2.637892926157924034e+00 2.505259987516236464e+00 -6.548156520667790303e+00 1.853518706597664101e-01 -5.954171477497278708e-01 7.534021940985935473e-01 8.064440567004237392e-01 2.555717891227380911e-01 3.652422549549397157e+00 -1.418702959989997847e+00 2.140566457443336290e+00 -6.551119974416449998e-02 -1.305337870031689551e+00 6.324338372432357636e-01 1.827261570502902943e+00 1.695787685262131639e+00 -4.380409386797816662e-01 4.303150301518011034e+00 1.314091448578184496e+00 -2.598352441592677309e+00 -7.507698984644802787e-01 5.545191206031067077e-01 -6.916764298516987708e+00 5.053503681235932410e-02 -6.827989755446532527e+00 6.597086674754213398e+00 5.861601471626395332e-01 2.559072666909536498e+00 3.388268417364860507e+00 -4.736378648902683786e+00 1.894266581307254338e+00 -3.691780999995777357e+00 -1.082438634142059319e+00 3.833576836841071644e-01 -9.347601127774737284e-01 6.305451047048302726e-01 -1.672333051844829832e+00 4.419788406071186726e-01 -3.185109084738042551e+00 -6.268015781925537766e-01 -1.143174266479697609e-01 -4.050642239175512138e+00 4.130557274240470811e+00 -9.892649331990054362e-01 -6.745325696654290715e-01 1.969709439163796594e+00 -1.879498677748728364e+00 1.398223093176201415e+00 -1.525583727239541387e+00 -2.166961918899609429e+00 2.229606852602643574e+00 1.278491951264324022e+00 2.929375830323428520e+00 3.183514486425601531e-01 1.342628639144846314e+00 -3.602505605988103099e+00 -3.245452366700836144e-01 3.748025943180707809e-01 -5.491861379851369351e-01 -4.691444503679846001e+00 -5.417433079386134720e-01 -7.960490857600844850e-01 -4.020105244404695854e-01 -1.092133750744045839e+00 -1.385375803837916031e+00 -5.117164200771625454e-02 -6.728917429143270290e+00 1.797171433498456095e+00 -6.347966812437728645e-01 -1.697193564586934267e+00 5.319782573248592605e-01 3.175208794086825659e+00 -3.189966413231856368e+00 -2.206904524032519799e+00 -2.312937855610053717e+00 -5.049009392538501562e-01 1.808577362285379575e+00 -3.816738166625273543e+00 2.251236516845209756e+00 2.217319549579175285e-03 6.607571120091960681e-01 -1.315509154978506734e+00 3.681833401042482468e+00 6.191640127764975077e+00 -4.542601272486921360e+00 9.350717305063803053e+00 1.031170112959217811e+01 1.512672674537585138e-01 -5.384536840159505289e+00 3.537247402815922648e+00 -2.803078604615499181e+00 2.007006378925050516e+00 2.732762526886346688e+00 -2.906155681533819202e+00 4.883558376212747909e+00 -6.431481392226029437e-01 5.573871864165988121e+00 -1.132963386540923656e+00 -1.853237942109243530e+00 3.374613801567197147e+00 -3.682372818530308844e+00 7.349905228386950373e-01 -1.504722822905745494e-01 -5.106165020538439236e+00 6.793986399107138086e-02 9.249498107443402395e-01 -1.476035994122727457e+00 -6.813876454806979677e-01 1.762057360501571912e+00 -1.160891225607990851e+00 2.986522202351219679e+00 -4.874941580365740990e+00 2.022385176645195237e+00 -8.620930181233036338e-01 8.194898352191675173e-01 1.401697682275576673e+00 -3.345272884085880305e-01 1.822555422887469412e+00 -4.630830227421451006e+00 -1.105243806847135302e+00 -1.827361843534481389e+00 -1.903108605809808784e+00 6.695114618867031631e+00