LMMPS data 
360 atoms 
2 atom types 
2.376929179746911 17.501070820252593 xlo xhi 
2.375589929982892 17.491210070016486 ylo yhi 
3.119471428483724 22.96832857151624 zlo zhi 

 Masses 

1 10.811 
2 15.9994 

 Atoms # full 

1 1 13.566 4.77436 11.7884
2 1 12.5831 5.082 20.6762
3 1 10.0814 14.3317 10.904
4 1 11.0418 16.3508 18.9635
5 1 7.16206 5.30194 20.835
6 1 4.69627 6.04347 20.123
7 1 3.66929 7.18781 5.36546
8 1 4.2442 9.16007 6.64706
9 1 16.5425 6.30404 6.68218
10 1 15.0278 6.59846 11.8142
11 1 16.8161 5.31729 10.7403
12 1 3.46814 5.54851 3.67762
13 1 4.26998 3.42727 4.72396
14 1 15.6349 3.31028 4.21264
15 1 4.99669 8.18683 21.4357
16 1 6.41604 8.50006 7.78093
17 1 7.18314 15.4292 13.0007
18 1 5.76739 16.5932 11.356
19 1 4.88541 15.0681 12.9254
20 1 6.19096 5.39337 12.4719
21 1 6.95616 3.47597 16.7866
22 1 5.99832 4.44167 14.7121
23 1 13.7707 3.58636 22.1481
24 1 11.9614 3.64165 18.4076
25 1 2.39011 14.5126 13.2672
26 1 2.60431 16.7448 12.9567
27 1 4.24988 2.46088 14.7392
28 1 4.74422 7.13598 13.2271
29 1 8.82949 6.37175 19.0311
30 1 15.3054 7.42178 20.9473
31 1 14.9568 7.928 3.40966
32 1 2.5762 17.0431 3.64456
33 1 17.0611 15.0582 6.66583
34 1 17.4243 12.9995 5.0724
35 1 16.4864 7.77988 18.7865
36 1 11.3453 13.8791 12.912
37 1 11.7454 12.5627 11.0161
38 1 14.5964 9.60307 5.57747
39 1 15.0624 7.81562 7.90246
40 1 17.0442 10.5821 5.91323
41 1 17.0987 15.9732 21.1051
42 1 14.9062 15.0871 6.76777
43 1 4.92958 9.44972 17.4323
44 1 17.3684 9.16338 16.754
45 1 17.4813 11.7685 19.5536
46 1 13.5662 15.1302 16.4431
47 1 14.9273 13.1915 16.0706
48 1 12.8254 13.0685 17.2475
49 1 5.1341 8.43456 15.1188
50 1 4.73903 9.5225 12.9468
51 1 6.53124 16.6301 21.2737
52 1 8.92004 15.2706 5.99453
53 1 15.2768 11.7908 19.7117
54 1 13.9001 12.5113 21.431
55 1 13.481 10.5402 20.2077
56 1 13.5086 16.8845 14.5455
57 1 17.0584 13.0313 15.3777
58 1 16.4244 6.00925 22.6846
59 1 3.67705 10.3725 20.9812
60 1 15.5363 14.8647 19.6883
61 1 12.7454 17.4595 12.2413
62 1 16.4285 2.81401 10.9448
63 1 17.4651 15.7936 18.7481
64 1 13.0269 15.132 19.8421
65 1 12.9876 14.1085 3.59221
66 1 12.4742 4.44178 6.79084
67 1 9.96108 7.54039 4.27051
68 1 9.85545 3.71934 6.29015
69 1 10.6021 6.61919 8.32478
70 1 12.4639 5.66957 9.7186
71 1 14.7649 4.73814 5.75505
72 1 7.63538 8.77071 9.72593
73 1 8.33479 8.8928 5.89548
74 1 12.905 14.547 5.82509
75 1 10.8451 17.1986 8.65217
76 1 12.9518 2.54633 8.37379
77 1 12.7426 7.40422 7.88047
78 1 10.7297 2.76455 11.0001
79 1 8.72658 5.02562 8.16355
80 1 7.78714 5.287 10.573
81 1 8.51897 16.0112 19.6682
82 1 6.92328 15.1335 17.9688
83 1 6.76572 12.9518 16.5518
84 1 14.6731 8.03481 15.489
85 1 12.7954 7.66901 16.9565
86 1 12.0865 5.34358 16.6268
87 1 6.7548 8.48951 3.31944
88 1 6.03977 17.3061 19.0555
89 1 9.61075 4.57031 12.1924
90 1 8.83397 3.09531 15.6578
91 1 10.2334 4.9579 14.7883
92 1 16.1921 9.50314 14.4833
93 1 8.15891 13.278 22.4369
94 1 7.43658 11.5181 6.0289
95 1 4.41814 11.3403 11.1186
96 1 2.71634 12.6523 9.86662
97 1 4.85787 12.3022 9.07922
98 1 6.96738 15.7706 7.62328
99 1 9.05956 15.943 9.14447
100 1 4.57696 15.4735 6.62388
101 1 11.4148 9.15559 3.88833
102 1 14.6392 16.3085 9.60366
103 1 14.1724 13.8505 8.88068
104 1 8.73777 11.1673 9.21227
105 1 7.30498 12.4122 8.461
106 1 4.33342 14.2193 4.06319
107 1 8.68375 17.258 4.68231
108 1 11.2175 8.87673 12.181
109 1 9.03934 8.21274 11.7657
110 1 9.8287 8.16591 14.051
111 1 4.55889 12.3161 19.7687
112 1 6.93895 12.4423 19.7137
113 1 6.88616 10.2692 18.7141
114 1 10.7645 12.3541 18.3915
115 1 9.29921 12.9422 20.6735
116 1 11.7098 9.27487 21.1989
117 1 13.8088 9.07066 12.0194
118 1 15.5532 10.9062 12.6411
119 1 3.98075 16.114 16.7112
120 1 4.38472 13.483 16.2793
121 1 10.5378 8.71375 16.3708
122 1 8.77552 8.5106 18.0436
123 1 11.0009 7.10862 19.9548
124 1 9.12742 12.1858 16.2312
125 1 6.95478 11.2049 3.95515
126 1 12.3405 9.8717 6.16014
127 1 7.76366 6.27966 3.83299
128 1 9.22692 15.9852 14.782
129 1 10.2834 13.7321 14.9082
130 1 7.73062 3.84309 22.8138
131 1 15.8066 11.8505 10.5009
132 1 13.0646 11.2392 9.61237
133 1 15.1416 10.0162 8.93277
134 1 10.5972 10.9072 7.42888
135 1 6.15364 14.8916 22.8678
136 1 10.7557 13.6235 6.87149
137 1 2.81939 5.45678 18.4865
138 1 12.8017 16.585 22.1501
139 1 4.9586 3.47399 9.57887
140 1 3.36704 5.10105 9.04156
141 1 4.29684 3.87673 7.27335
142 1 16.3884 4.46507 17.0231
143 1 15.3678 5.75362 15.5216
144 1 14.6177 3.55572 15.6401
145 2 13.0523 4.87245 10.5795
146 2 11.6529 6.10406 20.6952
147 2 9.7664 15.4554 10.1801
148 2 9.78937 16.5521 19.4115
149 2 5.63643 2.55262 10.4572
150 2 4.36834 7.26727 20.5501
151 2 5.90128 5.58825 20.6733
152 2 17.401 5.85376 9.66989
153 2 3.84641 6.73509 4.09249
154 2 5.19189 9.28501 7.69799
155 2 16.0733 5.11158 5.89026
156 2 15.7715 6.7184 7.66874
157 2 2.57686 6.85581 6.13647
158 2 4.41013 8.22332 5.64824
159 2 16.2845 4.0841 10.3204
160 2 14.0448 5.81444 12.3859
161 2 16.3878 6.10052 11.7856
162 2 16.6521 17.3694 4.44761
163 2 17.4225 5.03476 3.15093
164 2 4.41484 4.49983 3.86596
165 2 17.1532 9.08682 15.4243
166 2 3.81608 14.3459 13.5044
167 2 4.697 15.9018 11.9326
168 2 6.11403 14.6022 13.3361
169 2 7.09163 16.2673 11.9097
170 2 12.1579 4.14872 17.1793
171 2 4.84819 5.93271 12.667
172 2 8.40954 7.1126 17.8799
173 2 4.87918 3.61142 14.2467
174 2 6.353 4.30809 16.0003
175 2 6.6331 4.98651 13.6162
176 2 8.87859 5.3269 11.3643
177 2 12.6611 4.28833 19.4597
178 2 13.5186 4.70079 21.4995
179 2 12.6512 2.80906 22.2962
180 2 3.47235 16.8242 13.8949
181 2 4.51468 17.172 15.9845
182 2 16.9744 15.6073 12.6207
183 2 15.1234 3.51083 22.4934
184 2 15.4328 7.82003 19.7367
185 2 14.498 8.96838 4.37464
186 2 14.587 8.05134 21.913
187 2 11.8789 11.2842 10.4256
188 2 2.46291 16.5534 22.2262
189 2 16.0596 15.93 6.89934
190 2 17.3797 11.566 4.96131
191 2 16.9276 13.8279 6.05413
192 2 3.25005 13.5122 3.95317
193 2 3.19917 15.3689 6.92323
194 2 6.26782 8.26259 21.8214
195 2 10.9119 13.437 10.2948
196 2 10.2709 14.5597 12.2661
197 2 12.1995 12.9178 12.1682
198 2 3.07978 10.0412 6.60016
199 2 15.8633 9.93825 5.97424
200 2 13.5866 10.1899 6.28807
201 2 5.6933 8.9053 16.3744
202 2 16.3228 12.0732 18.9414
203 2 16.3817 8.74556 17.7664
204 2 3.34926 12.5496 19.1066
205 2 3.53139 9.19866 17.6589
206 2 7.56257 15.9938 6.42684
207 2 13.3189 16.2798 15.8412
208 2 15.8431 12.2719 15.7688
209 2 12.1083 12.3398 18.1333
210 2 13.8268 12.6197 16.574
211 2 12.5488 14.3686 16.8188
212 2 14.8535 14.6163 16.2133
213 2 4.86074 8.17683 12.4339
214 2 4.96679 7.0664 14.6432
215 2 4.87995 9.57027 14.3125
216 2 9.51739 14.1507 6.65569
217 2 7.83611 16.2928 21.0161
218 2 5.93134 16.3563 22.4907
219 2 12.9082 11.5879 20.9376
220 2 14.3846 10.8307 19.2205
221 2 15.1682 12.5469 20.865
222 2 4.70956 10.6384 12.2355
223 2 15.8079 6.74022 3.86004
224 2 16.0573 6.28078 21.3199
225 2 4.21088 9.28332 21.5263
226 2 2.42264 10.6398 20.3349
227 2 4.65082 11.3371 20.8334
228 2 14.1526 14.2864 19.5365
229 2 16.0877 15.1711 21.0309
230 2 11.7967 17.1242 11.304
231 2 17.3863 2.71684 12.0492
232 2 12.979 16.4405 13.2378
233 2 13.1126 3.67334 12.5184
234 2 15.4035 17.0773 10.6168
235 2 2.79806 16.0846 19.9575
236 2 16.2196 15.0544 18.5894
237 2 2.84925 16.5355 17.6024
238 2 9.38615 6.34924 8.06741
239 2 12.857 13.6318 4.76572
240 2 11.6637 15.1431 19.3184
241 2 9.22591 8.11403 5.3814
242 2 8.90892 3.96392 7.25225
243 2 9.4422 2.96534 5.34301
244 2 11.1037 4.30926 6.52896
245 2 13.5631 5.38781 6.03715
246 2 11.4918 7.29368 7.52208
247 2 12.8046 3.82657 8.00849
248 2 13.0947 6.70988 9.05755
249 2 14.556 3.70236 4.84131
250 2 10.9916 5.80558 9.54792
251 2 7.44297 8.45988 6.82472
252 2 6.71804 8.04512 8.99271
253 2 7.72962 10.1195 9.36767
254 2 12.1489 16.5975 8.26357
255 2 13.9405 15.4962 5.92117
256 2 9.78944 16.6404 8.11017
257 2 8.07533 8.19242 10.7847
258 2 6.72145 5.58057 11.2751
259 2 7.71659 5.00912 9.23842
260 2 10.0548 3.43616 12.1158
261 2 10.5185 2.79234 9.69038
262 2 5.82549 15.926 18.4053
263 2 9.49988 17.3391 14.8553
264 2 6.9265 14.3613 16.821
265 2 7.96269 13.107 20.5106
266 2 8.18671 15.1263 18.6979
267 2 14.9881 9.22771 14.9873
268 2 11.2782 5.31787 15.4561
269 2 12.3785 6.39942 17.3799
270 2 15.1032 6.85986 14.7855
271 2 14.2634 7.92289 16.7753
272 2 6.24721 3.32666 18.11
273 2 8.21603 5.99767 20.2813
274 2 5.74756 17.3493 20.3824
275 2 9.08737 4.50921 15.5791
276 2 9.99569 5.25674 13.3915
277 2 7.90793 2.454 16.5112
278 2 6.82585 9.80194 3.73458
279 2 11.3034 9.49847 22.4752
280 2 8.2758 10.3733 5.90653
281 2 7.35241 14.3154 22.8693
282 2 16.5078 12.9598 9.61826
283 2 6.03275 12.8656 8.80875
284 2 3.64187 12.7953 8.79533
285 2 4.93938 11.1282 9.95561
286 2 3.12156 12.2419 11.1685
287 2 9.11458 15.9395 4.86494
288 2 3.81608 17.4113 4.07918
289 2 7.53485 12.0798 7.24745
290 2 5.49646 15.8741 7.576
291 2 7.72887 15.7305 8.84794
292 2 11.2193 7.67963 3.92359
293 2 14.6286 14.066 7.57801
294 2 14.18 17.2638 8.72306
295 2 14.6741 14.8754 9.67715
296 2 4.7137 14.9551 5.14413
297 2 4.8597 14.2897 22.6269
298 2 8.14168 12.4033 9.52396
299 2 12.6173 8.51274 11.9845
300 2 9.77019 8.06589 15.4801
301 2 8.81804 7.90201 13.0515
302 2 10.9158 8.7447 13.5298
303 2 10.1367 8.95306 11.3862
304 2 5.40101 12.6791 16.5667
305 2 7.81709 9.39904 18.3794
306 2 7.23592 11.5094 18.8862
307 2 5.62342 9.98248 18.5249
308 2 5.60241 13.1489 19.6393
309 2 10.0443 11.9301 17.2743
310 2 10.8028 8.3906 20.4847
311 2 9.53262 13.2269 22.0513
312 2 12.7929 9.4231 20.4875
313 2 9.91032 12.4937 19.5375
314 2 16.6932 10.3884 13.3736
315 2 14.7621 8.01076 11.5431
316 2 14.3556 10.2406 12.6223
317 2 3.16148 12.7535 15.8995
318 2 16.6815 13.9153 14.235
319 2 4.49399 14.8545 16.5122
320 2 10.2136 6.46881 18.9959
321 2 11.9533 8.53792 16.3772
322 2 9.81338 9.00003 17.3896
323 2 15.4193 12.0389 11.8333
324 2 6.42168 11.7109 5.11742
325 2 7.62539 11.9896 22.8739
326 2 13.8156 7.9695 7.29259
327 2 11.8062 9.84799 4.94648
328 2 11.3445 9.87361 7.1791
329 2 6.7384 7.29114 4.14997
330 2 9.09885 6.57262 3.56808
331 2 8.25026 15.6892 13.8685
332 2 9.33083 12.7562 14.9874
333 2 7.63581 11.947 16.5644
334 2 9.94634 14.9478 15.2907
335 2 11.5004 13.7544 14.2131
336 2 8.05162 2.56958 3.50838
337 2 7.40901 4.94792 3.90321
338 2 7.63169 4.27548 21.4052
339 2 15.6499 8.9464 8.47525
340 2 13.7765 10.0497 9.09624
341 2 15.9465 10.5271 10.1352
342 2 13.8316 12.4986 9.1637
343 2 13.2973 13.4552 22.2932
344 2 11.98 14.331 6.88629
345 2 10.9057 12.2474 7.10655
346 2 9.7519 10.6867 8.53383
347 2 17.1248 4.53126 18.2116
348 2 4.10973 5.32525 19.158
349 2 17.3476 6.77238 18.4124
350 2 11.507 17.4691 18.4262
351 2 12.8486 15.6198 3.40965
352 2 13.2144 16.0085 20.8518
353 2 4.70015 3.35404 6.03768
354 2 3.67532 5.04544 7.63706
355 2 5.12892 3.14561 8.28805
356 2 4.04806 4.35981 10.0363
357 2 14.6172 2.4553 14.713
358 2 14.2956 4.84697 15.2692
359 2 15.7827 3.32111 16.6727
360 2 16.2866 5.62204 16.387
