LMMPS data 
360 atoms 
2 atom types 
2.376538506640559 17.501461493359145 xlo xhi 
2.3751994769961353 17.49160052300398 ylo yhi 
3.118958710813059 22.968841289186454 zlo zhi 

 Masses 

1 10.811 
2 15.9994 

 Atoms # full 

1 1 14.3621 4.36085 6.333
2 1 14.3202 7.87019 16.6521
3 1 10.052 15.2081 7.6478
4 1 8.43307 16.8523 18.8986
5 1 3.88663 3.26119 19.9781
6 1 2.63323 16.6388 20.1249
7 1 4.64518 6.50977 5.86081
8 1 3.33728 5.0437 7.22295
9 1 2.95617 4.91785 4.86722
10 1 13.9484 5.28658 8.46388
11 1 14.8428 3.0283 8.19368
12 1 16.7573 16.0149 22.5341
13 1 17.4452 15.8524 4.98875
14 1 17.137 2.91833 4.03247
15 1 5.49601 8.76035 4.93016
16 1 3.67083 4.7538 9.6288
17 1 8.03913 15.0443 10.392
18 1 5.80077 15.7698 10.6443
19 1 7.44649 16.558 12.0757
20 1 4.14118 6.9113 17.9493
21 1 5.79009 6.88641 19.5398
22 1 6.05536 5.41664 17.5592
23 1 15.8901 7.00285 18.3487
24 1 15.1153 5.5936 16.6139
25 1 6.97403 2.86147 13.7942
26 1 4.89149 3.92858 13.7703
27 1 6.35824 3.98347 15.6711
28 1 2.67581 7.62055 15.9772
29 1 6.93868 6.62127 21.7414
30 1 2.96387 9.55 21.8859
31 1 16.9511 7.99171 3.22177
32 1 17.09 11.3457 7.35959
33 1 16.4839 11.86 9.61926
34 1 16.6405 9.63446 8.87097
35 1 5.05541 10.0658 22.9622
36 1 12.0111 16.3439 8.86198
37 1 12.5767 14.8564 7.27521
38 1 15.9938 7.35924 5.56206
39 1 14.142 8.48418 6.42476
40 1 16.0419 7.94304 7.71906
41 1 16.9679 12.001 4.87351
42 1 16.1662 13.7608 11.425
43 1 14.9669 6.87124 12.5341
44 1 13.8688 6.99608 10.4404
45 1 13.9824 8.82581 11.7979
46 1 16.2581 14.1091 17.6635
47 1 3.38746 13.2789 16.9605
48 1 16.6724 11.899 17.0928
49 1 17.0211 7.04646 13.7111
50 1 2.7525 9.11131 14.2151
51 1 9.24475 17.3027 21.1899
52 1 10.4527 16.2203 19.5836
53 1 13.9061 11.0572 13.1374
54 1 13.7112 13.2353 14.4016
55 1 15.2745 11.4699 15.0756
56 1 14.8743 15.9005 16.9875
57 1 4.82529 13.6327 18.7118
58 1 16.9853 7.85782 20.5616
59 1 7.19135 10.2275 4.12597
60 1 15.2294 13.0558 3.78719
61 1 13.2324 17.4119 16.5052
62 1 14.3613 16.4903 14.6797
63 1 17.1056 12.5451 22.5774
64 1 13.404 14.8072 3.63396
65 1 12.0747 16.7393 4.09152
66 1 10.1491 5.38325 11.9595
67 1 8.24237 4.6735 10.4525
68 1 10.4314 5.09572 9.66666
69 1 13.4099 7.32666 22.6878
70 1 13.736 5.36751 4.22125
71 1 11.8101 6.7073 4.49589
72 1 4.49851 6.57501 10.7285
73 1 5.75523 4.44484 10.43
74 1 10.3309 3.08995 5.30684
75 1 10.5556 4.39778 7.33604
76 1 8.90069 4.91201 5.75074
77 1 13.5756 9.5524 21.4981
78 1 11.0831 3.63382 16.158
79 1 10.4303 5.10054 14.4469
80 1 9.77423 5.58915 16.7382
81 1 13.1495 3.17557 20.1242
82 1 11.1051 4.40644 20.6311
83 1 13.0387 5.44658 19.9601
84 1 10.7243 11.2141 15.194
85 1 12.5645 9.57003 15.8816
86 1 10.499 9.94684 17.035
87 1 7.99008 6.03027 3.86625
88 1 9.05232 5.51786 21.7597
89 1 9.4444 7.18292 18.4731
90 1 11.8729 7.3583 19.0777
91 1 10.2627 9.04218 19.0795
92 1 9.92754 11.5917 12.9993
93 1 8.82476 9.85602 5.61465
94 1 8.70172 8.98542 7.78942
95 1 3.70335 11.4205 13.6189
96 1 4.11479 13.7756 13.4802
97 1 5.81605 12.3011 13.0367
98 1 6.24223 14.2601 5.13158
99 1 7.87232 14.3868 6.77636
100 1 5.75385 12.8991 6.89834
101 1 11.9141 10.9959 21.7992
102 1 15.6475 15.7381 12.7596
103 1 2.72905 15.0967 12.5568
104 1 7.34793 9.87097 9.4231
105 1 6.681 11.4643 10.9414
106 1 5.82272 11.4391 8.7242
107 1 5.89131 16.1603 3.55629
108 1 8.02407 7.97281 12.7692
109 1 5.66315 7.68319 12.144
110 1 6.1285 8.0288 14.3943
111 1 9.7707 11.9635 21.9906
112 1 7.82871 13.3529 21.4206
113 1 7.87748 11.1049 20.558
114 1 9.31457 15.3883 14.9874
115 1 7.78742 16.1116 16.7682
116 1 7.79867 13.8682 15.7254
117 1 9.7617 9.31914 12.372
118 1 10.6432 10.8078 10.897
119 1 3.78611 13.1676 20.7327
120 1 5.96317 14.2119 20.5794
121 1 6.25945 9.3669 16.4342
122 1 6.99995 10.0321 18.5256
123 1 7.25473 11.4213 16.4837
124 1 10.7425 15.3985 13.1374
125 1 10.1493 7.90286 5.95012
126 1 13.3457 11.1635 19.9487
127 1 5.33486 2.92251 22.0281
128 1 10.1724 14.2709 11.226
129 1 11.893 15.5631 11.1427
130 1 7.45287 2.47041 22.7478
131 1 11.383 11.38 8.5779
132 1 13.2308 12.6454 7.5961
133 1 12.7984 10.3731 6.88517
134 1 13.1774 12.6718 18.0825
135 1 12.421 14.9501 18.4254
136 1 12.3918 13.8718 16.1981
137 1 3.66135 17.2161 18.1488
138 1 13.2499 16.5627 21.9017
139 1 3.55102 15.6848 9.2844
140 1 16.4664 16.2714 8.63889
141 1 2.8492 15.3469 7.11145
142 1 2.72431 17.453 16.0871
143 1 16.1352 3.96232 15.4237
144 1 2.76125 3.40904 13.911
145 2 14.6643 4.47471 4.96495
146 2 13.8332 9.10102 16.1269
147 2 8.8225 15.1506 7.31222
148 2 7.38544 16.7797 17.9201
149 2 4.5295 16.134 10.1178
150 2 17.1959 15.7726 21.1612
151 2 2.57785 2.90017 20.4581
152 2 15.8031 17.4294 8.84016
153 2 5.15291 7.76544 5.7315
154 2 3.02321 4.38718 8.42247
155 2 2.48187 4.23122 3.81398
156 2 2.38492 4.77972 6.22207
157 2 3.9049 5.87449 4.84964
158 2 4.3482 6.04606 7.23098
159 2 14.5599 3.11326 6.79295
160 2 13.8238 5.36213 7.06524
161 2 14.3942 4.10805 9.08918
162 2 17.3912 17.2489 5.25017
163 2 16.3493 17.3652 22.8606
164 2 16.8136 15.3241 3.80763
165 2 13.8096 6.51831 9.10352
166 2 7.49381 16.8151 13.3774
167 2 6.08713 15.9795 11.9413
168 2 8.32784 16.2714 11.1243
169 2 6.82723 14.9604 9.79939
170 2 14.9987 4.57987 15.7542
171 2 2.93269 7.35703 17.3431
172 2 6.07051 7.22911 20.8632
173 2 6.90081 4.67134 16.8074
174 2 6.65865 6.10558 18.8228
175 2 4.73489 5.69987 17.497
176 2 4.68999 7.55117 19.0411
177 2 14.1778 6.63813 16.2078
178 2 15.2729 8.03076 17.6517
179 2 15.7097 5.6152 17.7689
180 2 5.07679 4.29518 15.158
181 2 7.31111 3.24711 15.0428
182 2 5.9461 3.551 13.0819
183 2 16.2015 7.11679 19.6145
184 2 4.21645 10.2719 21.8553
185 2 16.7292 7.32961 4.41142
186 2 17.4143 9.34677 3.20168
187 2 13.6335 13.9927 7.34367
188 2 17.3217 11.5238 6.03119
189 2 15.8441 12.6832 10.5124
190 2 16.6011 8.2367 9.02083
191 2 16.51 10.4859 9.94956
192 2 17.1982 10.1225 7.79777
193 2 16.8845 12.2102 8.37344
194 2 4.6087 9.36479 4.13441
195 2 11.1473 14.4221 7.03367
196 2 10.5772 16.2659 8.66137
197 2 12.8853 16.1674 7.71932
198 2 14.7026 8.47242 7.71272
199 2 16.6758 7.53473 6.77095
200 2 14.815 7.95301 5.41933
201 2 16.01 6.14374 13.251
202 2 13.6152 10.1633 12.2124
203 2 13.4722 8.31951 10.6813
204 2 14.6539 8.23856 12.8925
205 2 14.2535 6.24466 11.5427
206 2 11.7574 15.7413 19.427
207 2 15.4911 15.1441 18.0552
208 2 4.69842 13.4612 17.2443
209 2 15.9299 10.9743 16.2721
210 2 2.9683 11.9925 17.019
211 2 16.0153 12.8352 17.8466
212 2 2.51184 14.4199 17.0381
213 2 2.64765 8.96003 15.6457
214 2 17.3656 6.57688 15.0917
215 2 17.4604 8.21453 13.254
216 2 9.65651 16.4637 18.5256
217 2 8.20793 17.4129 20.1385
218 2 10.4151 16.6357 20.8921
219 2 15.0054 12.8166 14.984
220 2 14.6958 10.5357 14.2815
221 2 13.2571 12.306 13.4324
222 2 2.86351 10.3864 13.9485
223 2 16.6178 7.21823 21.9423
224 2 2.62587 9.02151 20.5834
225 2 6.86446 9.03302 4.91961
226 2 6.30777 10.6464 3.24285
227 2 8.38724 10.7872 4.62271
228 2 14.2688 13.9493 4.20575
229 2 15.5479 12.0159 4.73453
230 2 11.9267 2.6918 16.8216
231 2 14.987 15.6516 15.5477
232 2 14.0283 16.8777 17.5327
233 2 13.4896 17.325 15.1783
234 2 14.4922 16.476 13.0994
235 2 2.67023 12.0651 3.82785
236 2 15.875 13.0321 22.4238
237 2 2.71947 12.6552 21.4006
238 2 10.7025 5.66571 13.2097
239 2 10.9899 17.3276 4.53573
240 2 12.547 15.4402 4.64052
241 2 7.00051 4.04316 10.0582
242 2 11.1409 4.59612 8.64846
243 2 9.09441 4.91486 9.44767
244 2 10.82 5.68007 10.7764
245 2 8.84772 4.62091 11.7133
246 2 14.0216 8.2555 21.9156
247 2 10.8961 6.88133 5.53006
248 2 12.4821 5.556 4.70393
249 2 12.1588 7.58242 3.39914
250 2 14.0338 6.10427 3.13449
251 2 4.55972 3.86974 10.1055
252 2 3.33315 6.03386 10.3213
253 2 5.73486 5.84702 10.7661
254 2 9.42916 5.07226 7.00006
255 2 9.08705 3.75018 5.02216
256 2 11.0474 3.54964 6.47637
257 2 4.63992 7.83166 11.2011
258 2 8.93752 6.48694 17.3778
259 2 9.62901 5.71788 15.3822
260 2 10.2964 4.37961 17.1825
261 2 11.2009 4.01915 14.9014
262 2 9.86423 4.48979 20.9705
263 2 13.0471 6.68039 19.2189
264 2 12.0473 5.4325 20.9738
265 2 13.887 4.41205 19.754
266 2 11.7267 3.29544 20.2681
267 2 10.3634 12.0961 14.181
268 2 10.3555 10.0931 18.3856
269 2 11.5372 8.96981 16.7003
270 2 9.73175 10.6248 16.0894
271 2 12.0774 10.6408 15.0089
272 2 7.99976 5.90017 21.0764
273 2 6.89191 6.60271 3.28197
274 2 9.35483 6.07589 22.9276
275 2 11.6618 8.60175 19.6293
276 2 9.11721 8.41262 19.0946
277 2 10.7566 6.54838 18.6469
278 2 7.99836 5.90335 5.21431
279 2 10.8782 11.6618 22.6218
280 2 8.04746 8.76502 8.8663
281 2 8.57724 10.0595 7.02823
282 2 4.05386 15.0799 12.9618
283 2 6.97867 11.9916 12.2279
284 2 5.53754 13.5084 13.5902
285 2 4.8693 11.1597 13.1502
286 2 3.20313 12.8348 13.7451
287 2 5.50647 15.1084 4.28132
288 2 4.92917 12.0713 7.72196
289 2 6.96004 13.2568 7.41078
290 2 5.6048 13.1186 5.56779
291 2 7.27542 14.9052 5.68962
292 2 12.6264 10.1555 22.425
293 2 2.36795 14.3084 11.5126
294 2 15.2109 14.4774 12.2221
295 2 16.9467 16.1098 12.9066
296 2 5.95414 12.0581 9.94517
297 2 6.26818 10.1481 8.4746
298 2 7.32468 10.2635 10.7431
299 2 9.34624 7.90976 12.2715
300 2 5.54871 8.30239 15.6673
301 2 5.24442 7.59742 13.4433
302 2 7.48445 8.02304 14.1296
303 2 7.0069 7.82511 11.7686
304 2 7.16204 14.6182 21.3394
305 2 7.2148 10.1553 19.8242
306 2 7.11199 12.2868 20.8731
307 2 9.08285 11.0494 21.0617
308 2 8.96634 13.2614 22.1036
309 2 10.5219 15.7308 14.5323
310 2 7.72301 12.4394 15.7501
311 2 7.23673 14.7845 16.5581
312 2 8.67654 14.255 14.7336
313 2 8.84067 16.4278 15.9605
314 2 10.257 12.0442 11.6426
315 2 9.27099 10.2573 13.133
316 2 10.9258 9.66532 11.5947
317 2 5.85036 14.286 19.1073
318 2 3.71381 13.0659 19.36
319 2 4.91183 13.727 21.3107
320 2 7.24837 11.2962 17.8193
321 2 6.36647 10.5642 15.7917
322 2 6.62258 9.02628 17.7052
323 2 10.5841 10.7771 9.53116
324 2 9.47547 7.83486 7.1774
325 2 10.0175 9.12706 5.17747
326 2 14.156 10.1425 20.4774
327 2 12.247 11.6835 20.6909
328 2 13.6794 11.5322 18.7302
329 2 4.8797 3.60584 20.8602
330 2 4.89038 16.9767 22.6388
331 2 9.0408 14.1379 10.3677
332 2 11.8104 15.9351 12.4885
333 2 9.85463 14.5713 12.5302
334 2 11.3496 14.4619 10.674
335 2 12.5461 16.4589 10.2083
336 2 7.20056 16.3544 3.44815
337 2 6.50861 3.42046 22.4762
338 2 8.81826 2.56203 22.4397
339 2 13.2073 9.37511 5.96203
340 2 13.7843 11.602 6.92594
341 2 11.5533 10.763 7.34862
342 2 12.3203 12.3667 8.7478
343 2 12.8681 14.2023 14.9514
344 2 11.9664 14.9653 17.0412
345 2 12.6125 12.5814 16.7769
346 2 13.1543 13.8622 18.8304
347 2 3.59463 16.6731 16.8097
348 2 3.20652 16.2182 19.0281
349 2 4.35381 3.1665 18.616
350 2 13.8416 17.1762 20.7361
351 2 12.6263 17.4321 22.7597
352 2 13.3475 15.2278 22.1903
353 2 3.05163 14.9229 5.78599
354 2 16.6126 15.5076 7.55425
355 2 3.9497 15.21 8.03352
356 2 17.4079 15.9858 9.72109
357 2 3.6917 4.06691 13.0453
358 2 16.5949 3.61385 14.0991
359 2 3.30651 17.3941 14.6094
360 2 16.8683 3.21119 16.4168
