LMMPS data 
360 atoms 
2 atom types 
2.376538506640559 17.501461493359145 xlo xhi 
2.3751994769961353 17.49160052300398 ylo yhi 
3.118958710813059 22.968841289186454 zlo zhi 

 Masses 

1 10.811 
2 15.9994 

 Atoms # full 

1 1 14.4114 4.00926 7.69892
2 1 12.2312 8.82375 17.0076
3 1 10.187 13.3576 7.45958
4 1 9.51327 2.43911 18.0996
5 1 3.69265 4.77847 22.1858
6 1 2.89468 2.93858 21.0059
7 1 3.02908 6.25309 5.78941
8 1 3.81621 6.19616 8.35757
9 1 16.1436 5.54152 4.21966
10 1 15.1646 5.74569 9.13846
11 1 15.9856 3.57944 9.19794
12 1 17.4305 16.828 22.6625
13 1 16.6795 16.4504 5.0276
14 1 15.8453 3.14786 4.00739
15 1 4.22315 7.80866 4.08097
16 1 4.67275 4.92921 10.1351
17 1 8.67615 14.7492 11.0627
18 1 6.58663 15.5153 10.1471
19 1 6.98056 15.8565 12.3687
20 1 5.02403 6.92856 18.4448
21 1 6.57537 6.46323 19.9643
22 1 6.6928 5.38998 17.7389
23 1 14.3734 8.77917 18.1075
24 1 14.0409 7.76428 15.8798
25 1 6.07755 16.7592 14.6416
26 1 4.42964 3.09216 15.5534
27 1 6.7139 3.42468 16.2331
28 1 3.76292 8.35053 16.9474
29 1 8.52024 6.48042 21.1872
30 1 2.99873 9.73081 20.4809
31 1 16.1634 7.84415 22.8304
32 1 16.2507 13.5847 7.38529
33 1 15.1975 14.4638 9.37065
34 1 16.2701 12.5053 9.76335
35 1 4.74012 8.49765 21.797
36 1 11.7944 13.3658 9.22689
37 1 12.4316 13.3618 6.92178
38 1 3.00523 8.50863 8.84856
39 1 16.0039 9.07837 7.9763
40 1 16.9704 10.3003 9.86433
41 1 16.5066 12.1961 4.95243
42 1 15.6859 16.1189 11.1372
43 1 16.3684 7.5402 13.0771
44 1 15.3054 7.23481 10.9804
45 1 14.748 9.07532 12.4682
46 1 15.9097 15.947 17.4722
47 1 3.09707 15.4439 17.6131
48 1 16.954 14.6256 15.6014
49 1 2.73074 8.32185 14.8556
50 1 3.66751 10.4253 15.6165
51 1 8.4818 17.2087 20.1119
52 1 10.8891 16.3138 19.7075
53 1 14.247 11.3019 13.4105
54 1 13.5527 12.6005 15.1111
55 1 15.5385 13.2474 14.1406
56 1 14.2496 17.2246 16.7047
57 1 4.51591 13.9973 19.2208
58 1 15.8522 8.61335 20.4195
59 1 6.26173 8.90657 3.70212
60 1 16.1594 12.3438 22.4809
61 1 12.6679 2.94648 15.3682
62 1 15.1127 3.40512 14.807
63 1 16.5638 10.2118 3.68942
64 1 15.0758 14.5513 22.0349
65 1 13.7451 15.8724 3.67756
66 1 11.3653 17.4366 9.87623
67 1 8.70094 3.89645 10.3833
68 1 9.55428 17.4649 8.4587
69 1 12.8347 7.02637 4.76101
70 1 12.9101 4.80041 6.00581
71 1 10.7741 5.60464 5.13075
72 1 4.45403 4.89341 12.3172
73 1 6.53082 4.1419 11.331
74 1 11.9406 16.5652 5.08177
75 1 9.86811 17.0832 6.06561
76 1 10.0662 2.50719 3.79374
77 1 12.5706 8.92031 3.46276
78 1 11.1966 3.37622 13.6827
79 1 11.1752 4.61619 10.6186
80 1 10.913 5.7321 12.7962
81 1 13.7825 3.5176 20.0687
82 1 12.7199 5.48915 20.5268
83 1 12.962 5.0311 18.3115
84 1 9.8804 10.5997 13.8004
85 1 10.15 9.74806 16.0757
86 1 8.03816 8.77251 17.1172
87 1 9.4773 4.61436 22.4887
88 1 10.8631 6.25864 21.5813
89 1 10.5845 6.73821 14.7295
90 1 11.4547 5.6684 16.7596
91 1 9.56814 7.02378 16.9467
92 1 10.1177 9.95546 11.5876
93 1 7.87335 8.84923 4.99399
94 1 7.20052 7.78703 7.02709
95 1 4.55243 12.2578 14.2105
96 1 4.46308 13.9543 12.6289
97 1 5.34398 11.8056 12.1302
98 1 5.85169 14.7867 5.94336
99 1 7.61412 13.6377 6.96883
100 1 5.27729 12.8037 6.76543
101 1 10.8031 10.6672 3.29041
102 1 16.5281 2.617 12.7298
103 1 2.71747 15.8984 12.1275
104 1 5.60811 8.69459 8.70747
105 1 5.76125 10.6537 10.0966
106 1 4.81028 10.8721 7.98744
107 1 6.05045 16.8826 4.59709
108 1 7.04908 7.17342 12.3457
109 1 4.8393 6.83059 13.3759
110 1 6.49102 8.48827 14.1909
111 1 8.72981 11.9359 3.20971
112 1 6.73404 13.07 22.2895
113 1 7.48843 11.208 20.8628
114 1 10.2487 14.4536 15.5205
115 1 9.26955 16.4886 16.1765
116 1 8.4346 14.1842 17.0943
117 1 8.61147 8.07099 10.7184
118 1 9.93035 9.39566 9.25752
119 1 3.45704 12.4384 20.5302
120 1 4.86738 13.9499 21.4429
121 1 7.48742 10.9866 14.6162
122 1 6.68093 10.3616 18.4933
123 1 7.00014 12.1902 16.7327
124 1 11.5803 14.4697 13.5254
125 1 8.41941 6.57043 5.39584
126 1 12.7372 10.5257 21.6029
127 1 5.66296 3.84158 3.4204
128 1 11.0911 13.6291 11.4076
129 1 11.583 16.7073 12.2077
130 1 6.97235 17.4282 22.1604
131 1 11.5269 9.62742 7.24479
132 1 12.977 11.4389 6.38304
133 1 13.8261 9.26798 6.90907
134 1 13.4484 11.9765 19.7326
135 1 12.5202 14.321 19.4117
136 1 13.2449 12.8875 17.6662
137 1 17.1988 5.07105 20.4215
138 1 14.2408 16.6123 21.3993
139 1 4.60263 16.078 8.73743
140 1 3.04448 2.67172 9.14449
141 1 2.96136 16.5497 7.19181
142 1 16.9414 5.6448 17.959
143 1 15.8207 6.09816 15.7676
144 1 2.74941 4.8805 15.9494
145 2 13.6037 3.75129 6.57119
146 2 11.0082 9.28883 17.0875
147 2 8.89635 13.3786 7.16535
148 2 9.60298 2.60181 16.7537
149 2 5.71568 15.4608 9.06383
150 2 2.73264 16.7073 21.367
151 2 4.03972 3.65601 21.5279
152 2 17.1609 3.23256 9.86821
153 2 3.30905 7.203 4.93259
154 2 4.32656 5.08152 8.87132
155 2 15.3022 4.35308 4.07208
156 2 3.88374 7.42704 9.07751
157 2 17.1313 5.32228 5.19792
158 2 3.38525 5.98113 7.07255
159 2 15.2463 2.94657 8.18357
160 2 14.6836 5.41585 7.91909
161 2 15.4258 4.69517 10.016
162 2 15.5149 16.9376 4.79508
163 2 16.9729 3.07053 3.14457
164 2 17.4207 15.8597 3.6942
165 2 15.1808 6.95977 9.72858
166 2 6.65164 15.8497 13.6629
167 2 6.28668 16.3362 11.2041
168 2 8.27953 15.2336 12.3299
169 2 7.6729 14.7094 10.0605
170 2 14.6368 6.67208 15.2737
171 2 4.02698 7.72326 18.1203
172 2 7.37816 7.05532 20.8268
173 2 7.5477 4.3856 17.0314
174 2 7.1535 5.4703 19.2079
175 2 5.74239 6.25377 17.4836
176 2 5.12717 6.48979 19.8747
177 2 12.9017 8.38592 15.8343
178 2 13.0587 8.98257 18.0962
179 2 14.9638 8.59671 16.8032
180 2 5.3743 3.76767 16.304
181 2 7.05921 17.4184 15.5845
182 2 4.79651 16.889 14.9819
183 2 15.0892 8.50804 19.2177
184 2 4.23329 9.10676 20.6593
185 2 16.0657 6.67656 3.5195
186 2 16.7462 8.81697 3.74142
187 2 13.2917 12.74 6.04071
188 2 16.4144 13.1646 6.11086
189 2 14.834 15.6019 10.1767
190 2 16.646 11.424 10.5263
191 2 15.2348 13.2624 10.0965
192 2 16.9832 12.7991 8.46587
193 2 15.6333 14.6607 8.02705
194 2 3.8726 7.88915 22.5947
195 2 11.1491 13.714 6.55865
196 2 10.4641 13.304 8.8866
197 2 12.7377 13.3349 8.29816
198 2 15.938 9.99263 8.97321
199 2 2.84178 9.38833 10.0506
200 2 17.1077 8.22081 8.00134
201 2 2.60484 7.79479 13.4862
202 2 13.9304 10.1701 12.7082
203 2 14.8549 8.37012 11.2534
204 2 15.5529 8.64744 13.4483
205 2 15.9293 6.56177 12.2207
206 2 12.0081 15.4061 20.0324
207 2 14.6463 16.5619 17.8872
208 2 4.23468 15.0183 18.2022
209 2 16.7479 13.9637 14.3026
210 2 2.99854 15.1442 16.2893
211 2 15.8631 14.9249 16.4106
212 2 17.1146 16.0834 18.1372
213 2 4.30164 9.51116 16.5626
214 2 3.05862 7.63995 15.9424
215 2 2.63826 9.74293 14.7885
216 2 10.7554 17.0796 18.7135
217 2 8.57358 2.85833 19.0644
218 2 9.68636 16.1732 20.5654
219 2 14.4992 13.542 14.9536
220 2 15.241 12.3761 13.0476
221 2 13.186 11.5226 14.2586
222 2 4.2736 11.6149 15.4649
223 2 15.5799 7.97532 21.5918
224 2 17.0355 9.09234 20.069
225 2 5.4667 8.004 4.45896
226 2 5.95506 9.07057 22.3206
227 2 7.34368 9.67242 4.06781
228 2 15.4596 13.2305 21.4998
229 2 16.4875 12.9145 3.80054
230 2 11.4511 3.19392 14.9346
231 2 15.4051 2.56849 15.8479
232 2 13.0089 17.082 16.2976
233 2 13.8331 3.73626 14.6432
234 2 15.9378 3.62123 13.6924
235 2 16.6546 10.8073 5.02958
236 2 16.4034 10.9318 22.4114
237 2 3.03476 11.1189 20.7099
238 2 11.8885 3.5682 10.0292
239 2 13.0549 15.8268 4.84096
240 2 14.2812 14.7138 3.33627
241 2 7.87663 4.03485 11.401
242 2 9.0055 17.3563 7.12628
243 2 8.6549 2.93705 9.38454
244 2 10.7473 16.7607 8.69954
245 2 9.76967 4.86688 10.4578
246 2 13.3504 8.08906 4.24653
247 2 9.4436 5.67188 5.48089
248 2 11.5994 4.61272 5.86044
249 2 11.5383 6.50472 4.33174
250 2 13.5923 6.018 5.47639
251 2 5.96521 4.2439 10.1942
252 2 3.75347 5.05054 11.1603
253 2 5.78515 4.28305 12.4328
254 2 9.15683 17.2339 4.88581
255 2 11.4212 17.2319 3.98511
256 2 11.2593 16.6112 6.38346
257 2 4.11608 5.75546 13.558
258 2 10.5637 6.91731 13.2512
259 2 11.6889 5.46586 11.6217
260 2 10.6926 4.5802 13.4679
261 2 10.9738 2.62312 12.7701
262 2 12.1983 6.46544 21.3803
263 2 12.3173 4.6433 17.1821
264 2 12.9026 5.98437 19.2805
265 2 13.9481 4.00345 18.7343
266 2 13.026 4.1962 20.88
267 2 10.6563 10.6625 12.6469
268 2 8.58661 7.6229 17.58
269 2 8.80697 9.70819 16.4062
270 2 8.58027 10.9854 13.8086
271 2 10.6286 10.2895 14.9403
272 2 9.6961 7.09363 20.944
273 2 8.36797 5.34835 21.8871
274 2 10.7577 5.00135 22.2418
275 2 10.416 6.12736 17.484
276 2 9.55952 7.27637 15.4883
277 2 11.6906 6.06664 15.4182
278 2 9.23774 3.38981 3.12426
279 2 9.81898 11.3814 3.82213
280 2 6.17118 7.89092 7.91577
281 2 7.42439 8.87181 6.36142
282 2 3.83925 15.1828 12.1168
283 2 5.92215 10.7902 11.4119
284 2 5.32431 13.1169 11.9048
285 2 5.24387 11.3809 13.498
286 2 3.96771 13.4577 13.8131
287 2 5.4701 16.0684 5.55827
288 2 4.4782 11.7151 7.03868
289 2 6.50406 12.7406 7.4339
290 2 5.0021 13.5971 5.67855
291 2 7.17937 14.751 6.24992
292 2 11.3018 9.48108 3.76002
293 2 16.7564 15.3629 11.2778
294 2 15.5634 17.4123 11.6786
295 2 2.63107 17.2065 12.8123
296 2 5.02874 11.4371 9.26597
297 2 4.47408 9.46603 7.84823
298 2 6.22965 9.36573 9.6866
299 2 7.81605 7.15798 11.2095
300 2 6.99168 9.64794 14.7174
301 2 5.06881 7.95562 14.0901
302 2 7.4682 7.69831 13.569
303 2 5.72034 6.81023 12.2852
304 2 5.77193 13.9582 22.527
305 2 7.04308 10.5322 19.8314
306 2 6.67736 12.3979 21.0908
307 2 8.29004 10.9037 21.9598
308 2 7.83794 12.9145 3.44347
309 2 11.5172 14.2757 15.0555
310 2 7.33762 13.3937 17.4384
311 2 8.4451 15.6571 17.1242
312 2 9.45654 13.6031 16.3233
313 2 9.95796 15.7273 15.2061
314 2 10.4785 10.2639 10.1816
315 2 9.13244 8.9576 11.6467
316 2 9.22642 8.21326 9.39795
317 2 5.27194 14.4549 20.2233
318 2 3.70255 12.8991 19.2376
319 2 3.5459 13.3045 21.5393
320 2 6.17332 11.3164 17.6623
321 2 7.15474 12.0541 15.438
322 2 7.00839 9.17431 17.8581
323 2 10.4209 9.6152 8.04902
324 2 7.79568 6.54312 6.61016
325 2 8.4883 7.69313 4.58907
326 2 13.3224 9.665 22.4701
327 2 11.5115 11.1269 21.9136
328 2 13.5906 10.8119 20.5085
329 2 4.62716 4.98573 3.37501
330 2 5.79088 3.15919 4.68642
331 2 9.9023 14.0574 10.9948
332 2 12.0182 15.6546 12.8953
333 2 11.4866 13.3643 12.7266
334 2 12.1155 13.2174 10.5692
335 2 11.8062 16.5806 10.7851
336 2 6.73214 16.5951 3.35533
337 2 6.42692 3.64888 22.2729
338 2 7.36448 17.1481 20.8524
339 2 14.9142 8.44993 7.35499
340 2 13.9339 10.6038 6.7055
341 2 12.5186 8.77204 7.17904
342 2 11.6811 10.9145 6.63905
343 2 12.9525 12.5213 16.3655
344 2 12.8812 14.0926 18.1305
345 2 13.8584 11.9308 18.4607
346 2 12.8925 13.2183 20.2572
347 2 17.0463 5.77997 19.3072
348 2 17.1606 3.6137 20.2697
349 2 2.53881 5.42722 21.8146
350 2 14.4363 2.42248 20.4264
351 2 13.5701 16.8762 22.5907
352 2 15.2238 15.6514 21.2875
353 2 17.3582 16.0138 6.05442
354 2 2.81781 2.66155 7.732
355 2 3.61892 15.5526 7.95395
356 2 4.18646 17.1665 9.44463
357 2 3.26808 3.65991 15.4369
358 2 16.8417 5.40682 15.0969
359 2 3.05957 5.23499 17.2792
360 2 15.8088 5.9532 17.2095
