LMMPS data 
360 atoms 
2 atom types 
2.376538506640559 17.501461493359145 xlo xhi 
2.3751994769961353 17.49160052300398 ylo yhi 
3.118958710813059 22.968841289186454 zlo zhi 

 Masses 

1 10.811 
2 15.9994 

 Atoms # full 

1 1 14.9872 4.90177 8.49293
2 1 14.4313 9.68836 17.5099
3 1 10.1901 14.0418 5.24663
4 1 7.90922 16.1846 18.2407
5 1 3.83642 4.1986 19.8144
6 1 17.3464 2.62136 20.7489
7 1 2.60725 5.62902 3.19172
8 1 3.2416 5.62298 5.85847
9 1 15.1926 6.15782 3.26706
10 1 15.3046 6.03041 10.5748
11 1 16.3707 3.90142 10.2115
12 1 15.4953 17.4815 22.427
13 1 14.9374 17.1679 4.93847
14 1 14.1513 3.95979 3.64948
15 1 4.29389 6.08323 21.0683
16 1 4.42312 4.30364 7.71653
17 1 6.95311 15.0723 9.49575
18 1 4.94045 16.3032 9.18906
19 1 6.2921 16.5492 11.0764
20 1 6.11647 7.15108 17.8314
21 1 7.41571 5.85685 19.351
22 1 7.00346 5.3212 16.9905
23 1 15.6224 10.3919 19.0399
24 1 16.0914 8.10058 18.0549
25 1 5.72522 17.3595 13.3472
26 1 3.98159 3.55304 14.7118
27 1 6.20301 3.73127 15.3075
28 1 5.10952 9.36661 16.8443
29 1 9.14867 6.07004 21.1888
30 1 3.84169 10.3676 20.863
31 1 15.3454 8.97252 3.57311
32 1 2.45106 12.7209 8.70117
33 1 16.3596 12.8854 10.8681
34 1 2.55989 10.8821 10.2602
35 1 4.95766 8.37734 21.7595
36 1 9.71701 12.7616 7.42033
37 1 9.85969 10.6088 5.93064
38 1 2.7007 7.62039 7.58666
39 1 16.0071 8.98716 7.8814
40 1 2.78393 8.98956 9.40278
41 1 17.1991 12.544 6.22882
42 1 14.9223 14.5757 11.504
43 1 16.9538 8.56166 13.6033
44 1 15.3873 8.00427 12.0191
45 1 14.6221 9.44602 13.5393
46 1 15.9925 14.325 19.5085
47 1 15.9552 16.1543 18.5045
48 1 16.6075 14.1973 17.2218
49 1 3.65142 9.27326 14.9359
50 1 4.05989 11.3255 15.8747
51 1 7.90742 2.52864 20.0134
52 1 8.8084 15.6096 20.1625
53 1 13.7245 11.3667 14.3711
54 1 12.8134 12.6296 16.3636
55 1 15.1021 13.0629 15.5812
56 1 12.0126 16.8116 17.045
57 1 5.13806 14.8059 19.6691
58 1 16.2701 10.3707 21.4196
59 1 5.82077 7.71065 4.35943
60 1 16.3523 13.045 4.23996
61 1 10.3319 3.18476 15.8535
62 1 13.8429 17.4427 15.4357
63 1 16.3709 10.8599 4.7407
64 1 15.516 14.2476 22.0251
65 1 13.1104 15.2471 21.6518
66 1 11.941 16.9451 10.6998
67 1 9.18748 3.01136 8.72474
68 1 11.3044 16.4825 8.29281
69 1 12.8232 7.8345 6.4298
70 1 13.3933 5.76964 6.96166
71 1 11.1296 6.32986 7.04425
72 1 5.24472 5.27668 9.84188
73 1 6.6973 3.9401 8.42469
74 1 11.9658 16.6462 3.77174
75 1 11.7476 16.9868 5.98971
76 1 10.9776 3.61964 4.50675
77 1 12.0681 9.73707 4.85997
78 1 9.34992 3.16404 13.5315
79 1 10.8587 3.98622 10.3576
80 1 11.5868 6.30961 11.0375
81 1 12.3109 3.87198 19.5701
82 1 12.8815 6.03755 20.1754
83 1 13.2075 5.50902 17.9111
84 1 10.0096 9.50597 15.0505
85 1 11.9347 8.81148 16.7633
86 1 10.0734 7.35154 17.2963
87 1 10.362 5.64097 3.28626
88 1 11.4073 6.82322 21.4976
89 1 12.1647 5.82878 13.6313
90 1 13.4534 4.83514 15.4165
91 1 10.5685 5.78509 15.5271
92 1 11.2086 10.1299 12.9382
93 1 6.89517 8.02477 6.2801
94 1 7.49202 8.49285 8.42906
95 1 4.13453 13.6688 14.8249
96 1 3.34113 15.1544 12.8319
97 1 5.18201 13.5904 12.6938
98 1 5.6547 15.8033 4.83868
99 1 7.92379 14.8464 5.08459
100 1 6.02095 14.2634 6.55622
101 1 12.3261 13.1267 4.65706
102 1 14.9154 16.3934 13.2809
103 1 16.9684 17.1921 11.8397
104 1 6.8026 10.469 9.42183
105 1 5.90996 12.2595 10.5821
106 1 5.83199 12.2971 8.31956
107 1 6.06525 2.99381 4.10284
108 1 7.81619 5.1569 12.9659
109 1 6.02445 5.9525 11.8981
110 1 7.30131 7.46691 13.1197
111 1 8.62462 10.012 3.76107
112 1 8.04088 11.9163 22.2893
113 1 9.27428 9.82798 21.2722
114 1 8.82233 13.738 14.417
115 1 7.69162 14.9881 16.113
116 1 7.60226 12.7624 16.4467
117 1 11.6098 8.77653 10.9481
118 1 12.0381 11.1092 10.9448
119 1 4.62348 12.3661 19.9687
120 1 6.63791 13.3063 20.9852
121 1 8.03603 8.96439 14.9115
122 1 8.98407 8.91359 18.8981
123 1 7.80348 10.3464 17.1514
124 1 9.35801 14.0859 12.0845
125 1 8.87054 7.15837 7.17124
126 1 12.4212 11.325 22.8599
127 1 6.18369 5.26976 3.85661
128 1 9.00291 13.5688 9.49266
129 1 10.6134 16.2054 12.4152
130 1 6.81313 3.90316 21.9017
131 1 13.3211 12.357 9.07739
132 1 13.4393 12.8364 6.76663
133 1 14.697 11.1558 7.78519
134 1 11.7993 12.207 20.6267
135 1 10.7875 14.3183 20.2256
136 1 11.4313 12.7601 18.5377
137 1 4.22968 16.9505 19.5966
138 1 12.2527 16.4291 19.5613
139 1 17.4538 16.58 8.59343
140 1 15.6643 15.0915 9.22356
141 1 15.7418 16.0046 7.09257
142 1 16.365 3.32473 17.596
143 1 16.8017 5.69104 17.7684
144 1 17.2268 4.32609 15.7547
145 2 14.3101 4.76773 7.31052
146 2 13.1121 9.51333 17.1988
147 2 9.19954 14.9728 4.65652
148 2 7.41761 16.1113 16.7376
149 2 3.6795 16.2288 8.81774
150 2 16.2304 17.2789 21.2821
151 2 2.86728 3.87634 20.7166
152 2 17.1994 3.08635 10.8214
153 2 3.82754 5.79219 22.2114
154 2 3.73521 4.59838 6.57745
155 2 14.0693 5.45575 3.72386
156 2 3.3199 6.78195 6.67763
157 2 16.4014 5.41795 22.5422
158 2 2.52319 5.52014 4.69456
159 2 16.0702 4.04723 8.85058
160 2 14.7957 6.09319 9.18739
161 2 15.726 4.80769 11.0297
162 2 14.1069 3.18949 4.81244
163 2 14.6872 3.46703 22.3233
164 2 15.6154 16.8771 3.78395
165 2 14.6604 6.9699 11.5022
166 2 6.17556 16.3671 12.3797
167 2 5.39834 17.203 10.3074
168 2 7.37174 15.8333 10.6177
169 2 5.92908 15.3595 8.7362
170 2 16.8371 6.97123 18.1936
171 2 5.77112 8.68232 17.8033
172 2 8.1096 6.06873 20.4577
173 2 7.168 4.45696 15.8792
174 2 7.56966 5.11759 18.252
175 2 6.33733 6.45833 16.6963
176 2 6.52004 6.98368 19.1582
177 2 15.1396 8.48641 17.1505
178 2 15.2323 10.8598 17.8371
179 2 16.421 9.1681 18.8521
180 2 4.86253 3.87167 15.6122
181 2 6.60771 2.82202 14.2778
182 2 4.3906 2.53406 13.5545
183 2 15.6589 11.0464 20.2481
184 2 4.8537 9.64264 21.2234
185 2 15.3354 7.52558 3.80632
186 2 15.9017 9.60549 4.60593
187 2 12.8027 13.4754 5.85003
188 2 17.3834 13.125 7.48306
189 2 15.7254 13.4974 11.863
190 2 3.26349 9.57118 10.4998
191 2 16.729 11.5102 11.2429
192 2 3.02557 11.5579 9.19527
193 2 16.8464 13.4854 9.74167
194 2 4.65964 7.36829 20.8033
195 2 10.8911 13.1745 4.32268
196 2 10.2861 13.7048 6.54
197 2 9.36077 11.5002 6.76429
198 2 16.485 9.4058 9.19356
199 2 3.38609 7.9652 8.66707
200 2 16.4288 7.78393 7.43923
201 2 2.86588 8.36295 14.4238
202 2 13.4992 10.0286 13.9474
203 2 14.5858 9.15388 12.1634
204 2 15.8318 9.11624 14.178
205 2 16.7227 7.97329 12.3596
206 2 10.0869 15.4642 20.6858
207 2 11.8933 16.223 18.2083
208 2 5.23387 16.0935 19.1174
209 2 16.2022 13.7396 15.9728
210 2 16.4664 15.613 17.3462
211 2 16.8689 13.7459 18.57
212 2 15.1471 15.3947 19.3413
213 2 4.7141 10.613 16.8856
214 2 4.83829 8.77536 15.5261
215 2 3.43721 10.5998 14.8305
216 2 8.72612 15.2103 18.8436
217 2 7.59137 17.3979 18.6861
218 2 8.33269 16.6416 20.9173
219 2 13.8431 13.599 16.4675
220 2 15.1033 11.9639 14.7719
221 2 12.6327 11.8615 15.1725
222 2 3.98493 12.8062 15.852
223 2 15.3018 9.68975 22.2314
224 2 2.50491 10.1207 21.5484
225 2 6.12472 6.43692 4.55507
226 2 5.15399 7.92002 3.2536
227 2 6.16041 8.52383 5.3114
228 2 16.351 13.8812 3.11232
229 2 17.1075 13.4013 5.1994
230 2 9.22056 3.14074 14.9859
231 2 12.8074 16.8825 16.0779
232 2 10.6679 17.4616 16.8388
233 2 14.1176 3.63125 15.7003
234 2 14.552 16.8326 14.473
235 2 17.1436 11.1174 5.98708
236 2 15.8073 11.827 3.93477
237 2 3.63507 11.3561 19.8217
238 2 11.827 3.16343 10.7836
239 2 12.0328 15.6643 22.5108
240 2 14.1202 14.4948 22.1782
241 2 7.7934 3.254 8.18148
242 2 12.1254 16.4609 7.24923
243 2 9.89064 17.033 8.23949
244 2 11.8232 16.3636 9.49362
245 2 9.68372 3.86958 9.67746
246 2 13.0492 8.83361 5.37646
247 2 9.81821 6.08392 7.10525
248 2 12.1474 5.38408 7.01035
249 2 11.4892 7.62168 6.64458
250 2 13.8056 7.00572 6.87639
251 2 5.63813 3.68935 7.52085
252 2 4.19792 4.6973 9.02055
253 2 6.58468 5.19403 9.21463
254 2 10.9501 3.03568 5.91316
255 2 11.3937 2.73514 3.46148
256 2 12.2253 16.2205 4.95792
257 2 4.86489 5.78643 11.0683
258 2 11.8321 5.79626 12.2474
259 2 11.2554 5.3556 10.1762
260 2 8.83287 4.25194 12.9809
261 2 10.3136 17.4782 13.0666
262 2 12.8217 7.02927 20.9851
263 2 13.2937 5.72951 16.5231
264 2 13.6415 6.11089 19.0386
265 2 12.6108 4.18603 18.2733
266 2 12.0757 4.89825 20.4235
267 2 10.3144 10.3857 13.982
268 2 9.85039 6.37466 16.4581
269 2 11.5719 7.73268 17.5958
270 2 9.33631 8.38599 14.802
271 2 10.9515 9.6431 16.1594
272 2 10.3785 6.72511 20.6435
273 2 9.20221 5.37825 22.3184
274 2 11.1865 6.73075 22.9318
275 2 11.1324 4.38746 15.4408
276 2 11.0975 6.50698 14.4075
277 2 13.3336 5.2476 14.0304
278 2 10.3691 4.7608 4.23307
279 2 8.94891 9.9213 5.09272
280 2 7.45921 9.31555 9.48991
281 2 6.56596 8.10349 7.62674
282 2 2.86652 16.3232 12.2263
283 2 6.2666 13.2717 11.7093
284 2 4.2607 14.4516 12.1821
285 2 5.30324 13.4121 13.9945
286 2 3.16836 14.6434 14.209
287 2 5.21911 17.1605 4.66269
288 2 5.7038 13.2105 7.17945
289 2 7.4195 14.1627 6.24208
290 2 5.15599 14.9045 5.83299
291 2 6.89971 15.5494 4.25957
292 2 11.2313 10.5254 5.72758
293 2 14.6914 14.8274 10.1871
294 2 14.5196 15.3303 12.4964
295 2 15.7596 17.2565 12.6366
296 2 5.20361 12.7376 9.51053
297 2 6.09304 10.9619 8.28799
298 2 6.57926 11.0089 10.6532
299 2 11.4246 7.5678 10.4468
300 2 7.16219 8.69556 13.8587
301 2 6.23532 7.3279 12.1691
302 2 8.30685 6.46641 13.1399
303 2 6.56398 4.9056 12.5926
304 2 7.49476 13.217 21.9613
305 2 9.39084 8.95115 20.1699
306 2 9.18356 11.2863 21.2026
307 2 9.26978 9.34663 22.5769
308 2 7.78974 11.1668 3.49305
309 2 9.59579 13.4569 13.3934
310 2 7.30667 11.6705 17.1929
311 2 7.54563 13.9646 16.9679
312 2 8.30571 12.6455 15.1063
313 2 8.37335 15.0413 14.9159
314 2 11.3165 11.2692 12.1535
315 2 11.4469 8.86961 12.4303
316 2 11.7722 9.8947 10.1416
317 2 6.30797 14.504 20.4507
318 2 4.35591 13.6465 19.4926
319 2 5.78324 12.154 20.736
320 2 8.22158 9.95917 18.3181
321 2 7.70316 9.46087 16.1422
322 2 8.99208 7.85142 17.9965
323 2 12.6224 12.231 10.2574
324 2 8.71897 7.65797 8.36398
325 2 8.16536 7.49757 6.04876
326 2 12.2996 9.97735 3.48604
327 2 13.0925 12.3469 3.6972
328 2 12.2084 11.3122 21.4875
329 2 4.71959 5.1637 20.1614
330 2 5.96642 4.23166 4.70635
331 2 7.86963 14.0331 9.07434
332 2 9.56763 15.4243 12.2483
333 2 9.2907 13.3747 10.8513
334 2 9.87227 12.8921 8.6523
335 2 11.9226 16.0587 11.7236
336 2 6.88112 2.92332 22.7236
337 2 6.43616 5.23731 22.3238
338 2 7.22804 3.57627 20.5635
339 2 15.2125 9.80784 7.30036
340 2 14.7105 11.8993 6.75517
341 2 14.4255 11.6066 9.03826
342 2 12.8508 12.9885 7.94527
343 2 11.5599 12.5095 17.1122
344 2 10.8609 13.9793 18.9337
345 2 11.952 11.7354 19.3841
346 2 11.1642 13.2564 21.1315
347 2 15.9585 2.3917 18.68
348 2 3.0669 16.6727 20.181
349 2 4.22731 3.13654 18.919
350 2 12.0551 2.60396 20.1177
351 2 13.0875 15.3105 20.3499
352 2 16.1496 14.0499 20.8276
353 2 14.9055 16.3931 6.06849
354 2 15.0767 15.0762 8.00294
355 2 16.7884 16.7957 7.3572
356 2 16.6048 16.084 9.665
357 2 2.74483 4.07552 14.5913
358 2 17.2619 5.56337 16.3546
359 2 16.776 3.23444 16.3662
360 2 16.3731 4.73587 18.5492
