LAMMPS data file via write_data, version 2 Aug 2023, timestep = 10500000, units = metal

1700 atoms
2 atom types

0 27.7768022710012 xlo xhi
0 27.7768022710012 ylo yhi
0 27.7768022710012 zlo zhi

Masses

1 10.811
2 15.9994

Atoms # full

633 1 2.1801541398193898 2.3878760164262083 1.1741554174926339
1142 2 2.7215349943223646 1.8564820660149526 2.2687466816324062
945 2 1.4480581853484948 3.5335183252516114 1.1933987900664533
1350 2 2.4687319680120234 1.9041870529516198 27.654030924788124
474 1 3.143636502698418 0.6741117343254046 27.71819699930432
175 1 3.853987454360907 1.0877770642610096 2.15965230193536
1124 2 6.275231287933613 2.4236199827646105 1.6016355101995976
395 1 6.0770425684287614 1.8268903749461325 2.856082881525729
1294 2 4.884076515106986 1.1858595575582924 3.058140602633443
1649 2 3.9629781513167055 0.28176098590964543 0.9682833658603025
286 1 7.045634461324881 1.716993039867497 0.6717485057710805
831 2 8.037519605001965 0.8116548653671211 1.1928407015954947
425 1 11.417805196193346 2.5993522853206046 2.5735253305508303
1480 2 13.09844291680724 0.3472785010064194 1.2295087435901484
998 2 11.11049171842884 1.2485449657584058 2.421837797920548
299 1 11.88816862782364 0.23587116017355472 1.9107716875542642
900 2 11.229160351790961 3.4250373810414048 1.5125447295604117
226 1 14.865982124523414 2.4334545902344957 2.005438955102617
1062 2 15.813282891059979 1.4242008645369468 1.7485860722557343
244 1 15.927609825236093 0.6980993178640629 0.6107334731295875
1163 2 14.382593233675879 3.258629817565654 0.9630934486847487
859 2 14.463849492240785 2.755931302519293 3.255982304170239
1266 2 20.907231254829135 2.105799482112089 1.7273935018938258
862 2 21.60313968767354 0.37021974674964836 3.0810431735588817
653 1 21.286628486602122 2.888519963984737 0.7125780978018647
668 1 21.955486620591003 1.3987713133276751 2.2712411983781213
1218 2 23.267060145500515 1.6547169313498447 1.9293087565521325
582 1 23.996788308802167 0.6556558255743573 1.2696272667148771
832 2 25.288821586305016 1.0818520546744028 1.0854375458047774
332 1 26.52295089531354 1.0040685325498784 1.7098807493253878
1064 2 26.77914624341978 1.4429068097523035 2.9597375545555966
753 2 26.426322910356888 3.1007216803369597 27.64169119624771
1491 2 27.637999697160932 0.5230492996009772 0.9449735195447915
610 1 0.6271384842482551 3.9539232437649527 2.28663614646296
483 1 3.383953786433879 5.446904480016515 0.6341315728507456
1605 2 3.336913104246392 6.077025352816277 1.9508314295630842
448 1 3.707128734025634 5.75645282959234 3.22464392505442
1331 2 4.218168997614732 4.348343545929229 0.47507028015934527
1673 2 8.79215856002728 5.3080031993295105 0.3325670967008482
975 2 11.11419105245782 5.497385329098827 0.5967544998289249
154 1 11.505063151816834 4.845331577313904 1.700338892486233
930 2 12.093284337565493 5.3798604784480855 2.8343039788433235
1405 2 13.955232145741812 6.543180146579622 0.538555990092299
1077 2 15.736003768430399 5.2154631708998505 1.396467304985728
393 1 15.067877543320813 4.294134758991671 0.4579466011837861
399 1 15.062398118176239 6.4311192213883785 1.2932146756974463
963 2 21.46563031268879 4.27699900295908 1.009051015876246
319 1 23.783028995623855 5.872770301959405 2.4300274802140156
877 2 22.72388423180619 6.6274964548242545 2.080467120003392
1636 2 27.121317310921327 4.168132194012551 1.879333774147577
1666 2 24.98870918871051 6.0382788917160894 1.7382550338534195
508 1 26.920207872769 4.220690662701447 0.47635563071099285
1105 2 1.3082148664706519 9.437348077395217 2.6370862819795184
409 1 0.8291387813690269 10.138005801040345 1.5124036633940972
502 1 0.43319086015284675 8.966659309199331 3.5977217736504
1672 2 5.994051815115917 7.516610499765962 1.5051701883645183
910 2 4.439193568575932 8.738638083107276 2.9025821455871847
37 1 5.009105054481736 8.510543862768948 1.7018695514282505
836 2 4.616800844238387 9.283932777571957 0.6366681524040366
901 2 6.925009424326824 10.586441457961625 2.0750105696829433
80 1 7.141415361411983 7.787162820155472 0.8160320479418204
1342 2 8.322690797687637 7.876746247213152 1.5354921317544867
464 1 8.654034821136262 8.483314157214803 2.791946115247574
698 2 10.038954665755716 8.643214505112638 2.7985779447465595
24 1 7.353618502441305 10.300917335948833 3.353453834193279
106 1 10.58917663033865 9.234575912303319 1.6315302317353053
1167 2 11.174772004161284 8.38508569392152 0.6945472794562317
1620 2 13.15089281754088 9.713021025910358 0.5919799808727492
1335 2 12.695965618199859 10.03911773243442 2.886730333686234
547 1 12.41276152821269 8.675117220267163 0.21216592131168785
551 1 13.442523259572534 10.338238634300483 1.802705502086813
946 2 15.478252547910982 7.5253353446218885 1.9837500634873109
214 1 16.755989181203667 8.005238129580546 2.1778687519832864
1070 2 17.014548601458838 8.76328256952755 3.335187113279667
853 2 16.14707055129361 10.105948152043881 0.627161215122319
1657 2 17.74666518674324 7.653350065155288 1.252460122502593
1682 2 20.189401359399916 10.015460450517299 0.776960595399863
667 1 21.263456537758433 9.919957571521715 1.5664793048021313
934 2 21.891977527512626 8.733247402987617 1.5133374677278146
371 1 22.963455388175248 7.92554921739372 1.4570497203758594
843 2 24.20276094806375 8.251446279005508 0.9491152691434281
649 1 25.16524540875952 7.221458827569817 0.9652106660570258
771 2 27.34156629542365 9.80502569688576 1.0509238665778495
190 1 26.605692409604192 10.498017219841 0.14044116450129995
1056 2 26.190907634436037 7.371408895359923 0.03768964607080148
787 2 1.435870612343347 11.229087607432104 0.9245879961227289
308 1 2.7103438665236634 11.672478286429314 0.6657539076027987
637 1 0.9087380159681883 13.214639361477971 2.2667256809122915
1078 2 1.8680507936854827 12.672974836660343 3.0819805082183915
542 1 3.1536877669223435 12.090189023952375 2.8927479964071314
1519 2 3.5932569900255333 11.919901509277254 1.607159363648589
776 2 6.566910137134101 12.85338198145438 1.28358302057821
149 1 6.747452414215887 13.812820859010568 0.29110004146050017
467 1 6.776914965278752 11.552471470335197 1.0785063059363944
1581 2 10.282118942316796 12.689411650165823 0.5766124811908162
1098 2 10.458220106044136 10.550476490151384 1.5142876626733957
122 1 10.47604204895845 11.339643556123228 0.41443612730789103
198 1 10.994477318597825 13.790222869641129 0.1392664800894436
1261 2 14.421193636727732 11.363583314185597 1.76372910212792
97 1 15.333616737585112 11.231909833181685 0.7283638433008148
1010 2 16.741471126183544 13.599769426067555 0.9747908155730262
488 1 19.22456771453601 11.101006211497479 0.8819504533654482
1698 2 19.497614029072125 12.015349082153492 1.8800451227891792
662 1 20.604735555394125 11.809300751163187 2.894717155646034
819 2 21.616072318466987 10.862497160938627 2.6058117381994794
496 1 23.48900064165553 13.31323499919704 0.6141551314796746
1135 2 22.870719056090504 13.563852979320448 1.803064436018392
1134 2 27.334592382318764 13.029637671217289 2.6316596460821318
804 2 25.5245721752087 11.31156757911467 0.5624203028923856
1040 2 1.3917238112616697 14.128076636903517 1.3575205775026202
631 1 0.9088900001343883 15.29085067998731 0.8729698168679861
282 1 2.9730006171689056 16.304058149168682 1.5714682136776688
1615 2 2.866660943537944 16.814717978828025 2.860356551543398
765 2 1.8119831738175352 16.360170699632675 0.8244310117955295
1353 2 4.136692958933371 15.889727429452268 1.0023201394846735
102 1 5.273926741534235 15.313188596922078 1.590114791009712
1462 2 5.241609511569893 15.06487981161998 2.9152724065416566
1324 2 6.285071444150616 15.094027346337489 0.7506560699221312
1123 2 10.33089974719693 16.5730263699514 2.776410991986044
1599 2 13.346949870937639 14.326974053148072 2.4358870395486454
1037 2 10.440790963133068 15.037031816509517 0.3597499774825983
1557 2 11.443693302524759 17.18045677515954 0.6732296673741022
293 1 12.85869493898594 14.982191747322041 3.496217919574941
1175 2 14.056906902628553 15.195011006457753 0.2649556502921157
217 1 14.250373593785763 15.096067924961103 1.6353949893475692
947 2 15.294067985267422 15.74354440740463 2.177071190844003
376 1 15.951863073253984 16.03957227021667 3.3740187780149427
233 1 17.95975515735193 14.266436110943543 1.150279451766753
1443 2 18.23542635480517 14.80515286849944 2.3897607117337554
381 1 19.45261089682582 15.521290779629952 2.635571923457484
229 1 20.17987719753466 14.768935959307113 0.44695346053728346
1204 2 20.45851940484185 15.434418515517379 1.6365788305885012
1168 2 18.949368603477247 14.217086502014205 0.14733495576387426
49 1 23.218172156875895 14.731006813154494 2.467396525250515
1371 2 24.197128127355313 15.582380829027093 1.8797363442458144
540 1 24.525877775762464 15.45440605713617 0.5251204680349091
926 2 27.34406880400956 15.393387194984436 0.4276185435862718
774 2 0.11042224842968755 19.57238056601153 0.7271946320738939
158 1 4.755075301403281 20.421136060670577 1.5313345985862252
1613 2 4.797083128901023 19.42086798146142 2.5434000366935074
1621 2 5.510632807140087 20.09711204527445 0.42034113409242024
1697 2 7.323870770143997 17.9018578590757 0.8514474784233022
1439 2 7.844005375338794 19.483155754564155 2.492271499835733
673 1 7.883307501202074 19.129081317073076 1.2018853968433618
1626 2 8.713187442250213 19.746928446822935 0.31768736112072854
519 1 10.891818887528018 17.447842837055532 1.9571469846734921
1466 2 10.905285145281647 18.777501698510605 2.2641947419076627
652 1 11.938704681868305 19.61606570165581 1.8471416526370183
1131 2 13.197419749681238 19.53563903014653 2.440636762285885
1177 2 11.798741928458501 20.111592341721828 0.5757504066451051
956 2 16.938616304725844 17.084262783004153 3.4672390491774934
1402 2 14.120605441605365 20.63753029465709 0.5010005883319593
31 1 14.25473978387232 20.220080265555875 1.808621994639632
60 1 16.493540904387462 19.84592393682922 1.7263313690626874
1103 2 16.323363223763923 18.64280843756096 1.0868933689765974
931 2 15.454365316982065 20.409417295997653 2.466792562522725
1193 2 17.66748172586605 20.56032671046494 1.7423063332507822
1471 2 20.38240760282302 18.24796861113029 3.0373112102574455
273 1 23.572802048415785 18.99668115168332 1.9047368775706506
1361 2 22.195007923750318 19.196501143291425 1.9205815619641757
287 1 21.368530007295682 19.192306609482273 3.020031305305895
918 2 24.157695828069492 18.476679870233852 2.967160192873834
1158 2 24.321123028688966 19.241422551356155 0.68788149648045
1426 2 26.48641217838396 18.2487802607145 2.2159024366865805
96 1 26.92551851712146 19.454159481538024 1.7717610194311817
569 1 25.474534449745303 18.015994833844932 3.137738589442901
1108 2 26.617896733438183 20.635545279017798 2.3694038127935473
184 1 27.00407524929429 20.942025934950887 3.631311666967162
134 1 2.747949087803635 21.291553094188455 2.459891375644724
941 2 1.7481847139446625 22.24480394002389 2.479577786050143
206 1 1.931610436037802 23.37397865571413 1.6622375151265762
1285 2 2.2027716658859258 23.25640387288185 0.324990886349777
878 2 3.861207039548135 21.47441792033866 1.6247123344321228
564 1 6.083727426100856 23.932787306769114 2.15482188617169
1624 2 5.141375184141039 23.88523134017417 3.200713146043299
846 2 7.152845558162019 23.03308511380741 1.9699697660251017
471 1 7.96578727575321 23.05281460459389 0.8954067333717461
1365 2 8.954164060167153 22.096890667031207 0.7579099886121788
1415 2 13.419749172204927 23.030708228967168 3.1168313753224464
584 1 16.404311376744353 23.294271177973815 1.7656181719882214
1127 2 16.429390864023322 22.977968296308948 0.43623150557645934
1658 2 15.533133982204982 24.15487227538822 2.3239942754138854
265 1 14.11537636855276 24.102871979843318 2.475422158340671
726 2 17.339879473592386 22.803779271717506 2.6872188982480636
591 1 18.092385874868697 21.61877043396147 2.4869290296549043
1356 2 19.322764654019046 21.57871385576836 3.120242613385325
377 1 23.612043346763937 22.920284700663096 3.061585259384182
1536 2 22.973898763040104 21.684868917328536 3.099403342612639
1370 2 24.446253501516825 23.048386169747015 2.056585262272435
401 1 25.61541611831251 23.533963483132 1.5876745347926182
1001 2 26.81084555135459 23.632566757597505 2.229220402476187
1248 2 25.668910423446224 23.956453737338496 0.21826799997260274
353 1 27.209104888871657 23.316241611284248 3.4872898787762336
1281 2 1.7881945842919968 24.60434279341416 2.2738775746038282
1483 2 5.981024850435068 24.91276108663201 1.2053388917851546
1278 2 7.928505661980166 24.16182151773632 0.02692930593627423
647 1 7.127586304160969 25.193625014286614 0.3429717273851812
404 1 8.013116455217034 27.22084367030857 1.1486774797843615
1116 2 8.419457050633268 26.529182645540853 2.2660295351228905
1145 2 7.55130426691146 26.490172194832645 0.12302046541139176
1202 2 11.433170833273818 26.671922000058483 2.2917172629615497
671 1 12.206456488377793 25.530026409540042 2.650079677018908
1647 2 13.549545237602276 25.324506954807173 2.3535550107679843
1081 2 17.044368156923998 27.714894978544937 0.4244553054180752
264 1 17.1539709622938 26.539380557493473 27.543791436144687
1072 2 17.820629953764865 26.14075406464985 2.7131163046641094
1018 2 20.100646961067817 25.545712239330403 2.1357756550488083
626 1 19.149414669166053 26.285289618341785 2.9094298041877034
715 2 18.40721803043303 25.973011714466217 27.55075401378646
1157 2 23.293337511593116 27.287549484155555 0.8766863579899163
268 1 21.289597147700007 25.279646067674687 2.735900967382242
1049 2 22.366573172399836 25.217330415469874 1.756007943428276
419 1 23.347017019935244 26.221764267511766 1.7623007747700556
692 2 26.477871418978538 26.238269112881213 0.5188249507817307
497 1 27.369229008534987 27.179411189161478 0.09413586339662124
437 1 1.4487751493986887 1.8202042669784015 5.232412156181679
1321 2 2.386825888928701 2.8170053329776867 5.119941479913713
1629 2 1.6268573456871065 0.5718703344544687 4.758469196011574
1442 2 0.42468808653968615 1.9129673581594429 6.150197216797255
138 1 0.28455778363638085 2.868381908883997 7.125866923217552
1677 2 5.143429578329848 0.2596853488996033 6.15412852710246
1407 2 6.963402457337174 2.04019103735101 3.8616544616097013
176 1 8.226651141936117 1.659128034599626 4.106260163046033
1232 2 9.03352664311633 2.644070729393447 4.758744219525377
969 2 7.335440287131065 3.4197844624725144 6.102272072120345
1627 2 8.771002200065087 0.4841399312590467 3.895494221984905
990 2 11.897962078977752 3.13628267951571 3.7193322028364473
786 2 14.134154435720422 2.9783771239648478 5.609049913056146
1650 2 14.326633537120497 0.8143695934698366 4.573257730467244
493 1 14.331557171058437 2.199146195210715 4.475952385737363
1630 2 16.5784292711386 0.6982682004880308 5.339618456194625
164 1 15.610567717995302 0.15403821502026252 4.589160516158551
529 1 19.716387285197953 2.236698351697208 5.3679526318842266
1189 2 18.796327234197165 2.6025198382914048 4.410266299066659
231 1 20.600981147216572 0.3159503492551519 4.019388318954436
999 2 19.97351314638784 3.162976405456426 6.364354869294862
1420 2 20.581901672135416 1.2276444540989333 5.034720681349105
1479 2 22.38211617913812 0.31635879529277666 6.681948280055613
16 1 24.254991834401405 2.6072289511469715 5.33846047721495
1437 2 25.076300156329452 0.20256385212087205 4.125891122620988
611 1 25.778985007713604 1.4095397204100364 3.8954599983098794
899 2 25.280590942730615 2.5014077325537567 4.449886071679969
1351 2 24.185526059304863 1.8482332439383442 6.4971032059310945
454 1 2.224515668654929 3.8443464524705453 4.148999726151185
1396 2 1.0090478626355193 4.089069258931614 3.5670199775423215
904 2 3.3783468550314018 4.5104478383604985 3.8472607195686215
1287 2 4.530400123630967 6.553180925736472 3.9772862350274725
58 1 8.6127054844468 3.6008761533535423 5.62391913165207
913 2 9.43364302613379 4.626247247457259 6.039475822628452
388 1 12.223860872881811 4.417515387375633 3.811230940499236
1417 2 12.791119885555947 4.889652318522203 5.043816966899777
34 1 13.50001194212821 4.157313690030881 5.921662114856149
304 1 16.82914610807761 5.345879853902905 5.0904727955759865
1465 2 15.587213362644015 6.017737100045687 5.079951888721374
1493 2 17.07809645087908 4.264016120578413 4.291960270539605
1663 2 19.25164800120192 4.884177378322949 3.7110473885203117
172 1 18.400218329355678 3.883264841702941 4.070092626623357
1005 2 17.855992395711656 5.766281505593884 5.915202785907746
248 1 20.545104821301596 5.159525740055688 4.07046869220778
499 1 17.779542469683086 7.033055466465011 6.459761315169146
1047 2 23.874522769899464 4.969649754085492 3.4767345940104732
784 2 23.23385653187088 3.5355615605518915 5.262460798036772
1165 2 20.892309880312816 6.447174219333879 4.408775689463961
1637 2 21.47106967120274 4.149296302323062 4.093950048847777
406 1 22.879365067708235 4.299841313048365 4.130752223654522
59 1 25.87731202325001 6.6115036440922115 6.537197614976365
1454 2 26.749034966764853 6.9756144044823305 5.49243127379723
1318 2 27.305631318989278 3.986478535674913 6.801673660072853
1150 2 0.12934261108524236 7.6623085737139665 3.5313500332044576
1044 2 3.9597331935557905 6.9557510441373855 6.812890013795639
202 1 4.687395056219094 7.925851880641133 4.050625025678796
468 1 4.793673737168346 8.039557856790562 6.546155830789636
1377 2 5.033769432643246 8.52526096830627 5.2295841904089215
1027 2 7.804652379900784 9.063647587736185 3.7307851003067194
691 2 11.669121536956139 9.976590121736091 4.978278868924482
23 1 10.981650050816668 9.946462665657966 6.167570948542628
548 1 15.61373173353638 7.2854937701710005 5.632231387089171
747 2 14.522493795514452 8.0991685475274 5.712245576895968
165 1 14.19733197288781 9.182154898680416 6.464329026792114
1564 2 16.778264627328117 7.921817822135134 6.07147254163725
400 1 18.231922869179463 8.919440428904956 3.940008962596721
1555 2 18.96339978905028 7.794256412036589 4.210477253005394
1159 2 18.692820949680435 10.225363433510138 4.2251021351429054
145 1 20.34603746860688 7.67491138426468 4.367458134156762
1438 2 20.995838492891604 8.815946255867749 4.683937534368124
1277 2 23.321769776177778 8.627309824226039 4.017664714043067
211 1 22.321069560363984 9.112484731123514 4.820213293579414
1378 2 22.576030369145904 10.120990724253215 5.720419794252771
925 2 24.59701518359206 6.957738146215703 6.414024086395624
1659 2 0.05642947945737825 9.765517709121408 4.663122232757023
1640 2 25.600112279547968 8.10622698415863 3.681805654781346
302 1 24.694417511446414 9.010836517509468 4.204297451503249
515 1 26.68171744032267 7.513748044738379 4.258854403009247
1019 2 25.00318961876602 10.218555963137018 4.604600005003622
800 2 2.1883001541777474 10.742255680265025 5.197874816315106
11 1 0.8165901368994897 10.839252621130617 5.175904788026951
1490 2 0.10649836418964558 11.905377187893768 5.723421613604017
84 1 3.404083973376557 11.37525235659084 5.166744646052362
301 1 0.06404537131287241 12.133108353907513 7.1406453510182235
1182 2 3.916181222413447 11.75510522845658 3.9344791648322928
1206 2 4.13618974815047 11.413663544470795 6.300320408767848
456 1 5.438290305190559 11.691228297820498 6.508169342759621
1504 2 6.054589579136231 12.606450382205358 5.712675279808367
337 1 6.796128324292246 12.360026080496379 4.572509745208496
1492 2 6.977897657313855 13.421589545350734 3.6716126623779832
1322 2 7.395811945203835 11.142638833671132 4.453931836844507
1591 2 9.679862410699938 10.38952753050644 6.157695308697599
89 1 12.102132038921772 10.695370256575853 3.9118738810560894
785 2 11.93979864967655 12.059697309777595 3.674232919671865
363 1 11.890627447671164 13.021101110115342 4.617792569548356
1289 2 11.772801272387028 12.714212878181836 5.999068074496653
100 1 12.584215631139537 13.182184406782472 6.980907143264793
1151 2 14.365247443812937 10.43374443705916 5.8679456928046765
905 2 16.460519332703043 10.88098482314368 4.869470212937759
196 1 15.453662648680867 11.27319364550258 5.607450214845786
1196 2 15.36440282436771 12.520409382973412 6.136091796317032
606 1 16.507546709037648 13.099029360756592 6.649936274491973
32 1 17.728992082606958 11.237452367107807 4.5153681651940465
1084 2 18.074077789519492 12.501056824635725 4.372800726794877
283 1 19.417087408687944 12.988744980591658 4.616833485565548
719 2 20.578491441864852 12.61296444144611 3.968714121672424
1523 2 19.374622025469016 13.999389373297955 5.517554638448422
1132 2 23.376884573112168 13.553672163545732 5.273397352228047
436 1 21.74970767582669 10.469397499277 6.751194366878991
1696 2 21.41905981746517 11.842153259369486 7.04873158135005
230 1 26.636968091975948 13.508574247243846 3.742898440682755
235 1 25.359034136822707 10.812234287310002 5.8315215028723095
1203 2 25.214382251277712 13.20396189169974 3.7511082372349045
506 1 24.51016419600419 12.950337909086322 4.92856851331392
1035 2 25.044333712744393 12.164377782227202 5.937728106757887
1570 2 0.8190952135480636 15.925530843706008 3.669786167969855
195 1 2.1174243618415356 16.36282898115713 3.8998227479258274
1336 2 1.918972257738816 14.121014773988067 6.218385786273285
1552 2 2.6091892196521025 16.204748399091475 5.218694883279663
356 1 2.846430282606169 14.969129857554424 5.747365863393023
509 1 27.682232515332224 15.621196805448186 4.651744228644252
336 1 6.2179261079213175 14.569240288002101 3.743198530340152
1160 2 4.1736073415864485 14.565444219992479 5.657832522167123
1013 2 6.280869821256525 15.415146452585843 4.903464884224377
177 1 5.252136824990956 15.416432299138854 5.761847809301143
451 1 8.574672233003904 16.224846133904332 5.939907713748268
1236 2 9.129853501909436 15.970753212771708 4.674296498051583
541 1 10.253294098195072 16.543825084686002 4.133458868409861
1529 2 7.9400144398991515 17.39085392813668 6.262937834532446
1669 2 8.540430999052125 15.136259994183753 6.794838655810312
1700 2 13.105121207909605 16.306230609928683 3.7422958423965147
1374 2 11.862755316837093 14.398605887513165 4.313145517896736
1076 2 11.171565868534882 17.165894352621443 4.915380418705462
173 1 12.54295016682312 17.090787233475638 4.706549897928693
1385 2 13.10681854521373 14.490292923013778 6.876796243388655
1052 2 15.673614094219005 15.304817512984263 4.4868343372654795
1140 2 16.699241181221574 14.477118615032673 6.588386528729182
565 1 16.472911132409035 15.48429840653602 5.622267988900823
1364 2 17.174659723315873 16.656440384094957 5.783428486075014
1433 2 19.680396021104485 16.157196174539884 3.835413592850018
501 1 20.279206167186995 14.83024881780894 6.046758589797372
1448 2 19.769883023008827 15.613657722677843 7.084234735080963
1057 2 22.615968991048018 15.14059167410474 3.622304002513415
599 1 22.48962679014147 14.46427776489695 4.803333958784261
1292 2 21.524097191753558 15.004692258520699 5.670004612144308
1020 2 26.918722087454853 14.492561395800271 4.629011007445312
1421 2 27.39868953840501 16.441350501063365 5.757188836560449
1097 2 25.62561368322949 17.33753889232301 4.290789184535857
133 1 26.40214563408538 17.427055059144084 5.418934679996023
1095 2 2.7226056712727145 20.325070200738967 3.5067678032953413
1348 2 1.5630388253021081 19.01522562525707 5.590632906165846
186 1 0.4993644677482207 19.914263526825312 5.453373859812441
347 1 2.0842703001457097 18.66211671681056 6.827284896796571
690 2 27.5842726987569 19.816373249821844 4.311389000606839
881 2 0.439436519519224 20.952188248760194 6.4026037691544415
131 1 3.98435874138706 19.678036150721578 3.7148264062144065
359 1 4.436657103120835 19.291019331471116 6.309184538102713
1387 2 4.367732201670844 19.342379299587396 4.954313224502434
749 2 6.840834259073739 20.869447475630214 4.141907746541985
1293 2 5.694290851188786 19.50799740353892 6.924404577909172
358 1 7.243093289876961 19.615394061541853 3.695651734075218
807 2 7.029344118921893 18.55095814038377 4.485403463928703
157 1 7.883158986837004 18.542371659094737 5.559476220825167
939 2 8.935695570377998 19.3987166197097 5.641824198984659
237 1 8.983907630283815 20.574424931552624 6.440235410905092
704 2 13.344347408359873 17.95211803447156 5.3978422731648745
1073 2 12.62191032482221 20.156718728773903 5.938528227196931
118 1 13.64669390099326 19.24717567516815 5.649367503558129
480 1 11.424395158951484 20.10176009088189 6.542611749113749
290 1 17.548472296492626 17.348735759571433 4.714737126845377
865 2 14.926894697302023 19.573126312169467 5.631671494111848
1122 2 16.956917305766645 20.892494468684525 5.232743781791901
72 1 19.683313415951524 17.523224454355958 3.8954039523790605
1423 2 18.647606684765776 18.220965952016858 4.597159980713982
1398 2 21.61328530913682 19.95414551791646 4.1527307547831125
856 2 23.97168909393708 18.96184247322295 6.091485511581276
323 1 21.974297983752916 21.280055909279767 3.935356357791914
67 1 22.763748221655423 19.47993714054071 6.565294073790749
1467 2 26.26605319431289 18.332829153059052 6.394704900037876
174 1 25.23941859089591 19.268602069104045 6.405308833338281
915 2 25.6826433885553 20.599181692216757 6.350834662997035
1146 2 2.611135685842511 24.058143429719546 6.270475478842588
566 1 3.3925736283749526 22.912905716658802 6.145208221264187
700 2 0.32155061982961025 24.102587534248215 4.135734257161886
1272 2 3.3516311602964306 21.977543715162987 7.128038805868445
1470 2 4.049916343090867 22.698532449290894 4.941193197734009
227 1 5.225983559204421 23.121684215493097 4.401148874227429
1136 2 6.498696436402685 23.01669915838954 5.003673968355655
316 1 7.155747550267347 21.77708821226844 5.066352520172381
1033 2 8.063718117420374 21.598250059478254 6.089232098012918
1068 2 10.047443999275782 23.542734976041924 5.978650019106017
818 2 10.496624123504755 21.14663725455207 6.160937992187816
101 1 12.186822041159433 23.387946113859318 3.7114542326217514
511 1 10.777593508263811 22.481488033545883 5.642290568679925
1514 2 11.838291380501516 22.58611730267785 4.778187290399794
346 1 15.54257802831636 20.88313933421083 5.520553687678338
1411 2 14.82358880514578 22.12336539422244 5.753188352062501
405 1 15.575857483322716 23.23201300543174 6.134186947938045
943 2 16.898178410421206 22.968418365443327 6.38384711435079
1368 2 19.025260778781337 22.145294356007067 5.517042833855211
259 1 17.63786404552843 21.984417548852463 5.691644274514773
71 1 19.720152743982375 22.013860549673964 4.329305207253877
1568 2 21.06680888507692 22.23480935902143 4.530977972053174
1547 2 23.509345444250144 23.826439521390625 4.138976962652343
340 1 22.59507812531007 24.487405913988432 4.79473630311239
1173 2 21.411759644100695 24.938823803591106 4.041678111698618
1447 2 26.890945277208615 22.1720077993337 4.233983979647958
107 1 26.89435595196567 21.260377165457065 6.711728582060039
378 1 1.2117255899780377 24.929703039270784 3.475872605806512
1006 2 1.4348973515961692 26.167820497908718 3.964721697194264
443 1 0.9209959536702378 27.160336822481828 4.763259346465462
47 1 5.89330113897198 26.922934538086025 6.37656478413295
1354 2 6.931389982892875 26.606835409952446 5.512848904371214
38 1 8.731195414047933 26.936220399496637 3.516158452164618
702 2 8.894822326486812 25.948587269316977 4.482607662368376
260 1 8.052533126779588 25.820342015993145 5.600510396349636
1306 2 8.345773441941455 25.041290950201642 6.673485624366657
1431 2 11.497574404913209 24.505987708099177 3.2755494018429068
948 2 15.160668533623223 24.519422524312784 6.048551138217087
1625 2 15.793788683028527 26.89388858701704 3.729548737489811
369 1 16.902592353770217 26.03269565800195 3.711116496960701
285 1 16.263586747735886 25.30654239203694 5.852848656633563
1590 2 17.207948198305857 25.214632976953087 4.788546674977793
127 1 17.010852977159605 27.60067537183324 6.424467960166349
1038 2 19.46060603556523 27.259469518574395 3.8716730162139834
725 2 24.428042328673698 26.04498377623014 2.6293599922016964
1219 2 22.673566512717212 24.893100260290357 6.0933638346481915
123 1 25.15287824156396 26.62715404474008 3.666347441103309
1003 2 27.53379304366195 27.06787469567049 5.447607841315657
1550 2 25.79475383759318 25.72394271575296 4.453611092141001
307 1 26.53226268226898 26.108844733206062 5.5408909254088305
1670 2 26.36516513290996 25.492008259189458 6.733221846811704
748 2 0.8327598608226005 2.6650575501949967 8.349399677660843
822 2 2.2750913596783344 0.1817627486185247 9.524004306622059
855 2 3.3821933457317144 1.2690936399602133 7.591520039161436
510 1 3.323476187815069 0.37879728256940226 8.634049668733715
298 1 4.607085536303971 1.3823948783103812 6.890831112131429
1352 2 5.403652106034835 2.446774742973791 7.21595928326949
126 1 6.79651744692829 2.4973234414581578 7.0259977482493525
984 2 7.06167283860915 0.35806956887743735 9.768834283346221
1046 2 7.631957882567401 1.6539208299833665 7.755546272430114
339 1 7.8671453831499845 1.3579126306325537 9.133337279801273
1082 2 8.902007597173608 1.9807140491688067 9.819092378413487
575 1 12.61890513326704 1.776405362966948 9.630883510293376
866 2 12.393318550870879 0.442554982212406 9.958266069096732
1623 2 13.677571623214316 2.1633594832414675 8.766755480043393
1090 2 11.827198144964287 2.8411357379078437 10.040777036655365
514 1 14.807602333359617 1.4381967847148862 8.366812621666671
1213 2 16.059893004250593 1.9528313214627473 8.139202144266791
1468 2 14.671814584843698 0.05699613855234408 8.228707621604702
728 2 17.955018730857855 0.17072320572035482 7.268417771357705
188 1 20.168915437088685 2.372323636205886 9.9069223093918
1245 2 19.947873165518022 2.152575568299439 8.5637540857911
478 1 19.959322741523902 3.2615581487571945 7.730502427543035
593 1 23.492182636254505 0.8899512491484936 7.165057544942503
1500 2 23.956003397501156 0.5703857934947338 8.445585262254466
77 1 1.024339259600796 3.839470133357452 9.135964946395747
1484 2 2.1304497724100404 3.92280606123336 9.96721193435054
965 2 3.1545868103907275 4.94456091503247 8.06006835009438
40 1 3.2199244971389303 4.374363558317005 9.3715554273633
434 1 4.21834205183953 5.860030648158209 7.693523584626074
1422 2 4.490839729388679 4.219950488138782 10.038165777119445
1263 2 5.477884298026827 5.690284781556712 8.324397540102488
429 1 5.542669847403963 4.736583076657764 9.35454412935706
1023 2 6.839743951878556 4.479457661003124 9.862863348113343