LAMMPS data file via write_data, version 2 Aug 2023, timestep = 118000, units = metal

1700 atoms
2 atom types

0 27.7768022710012 xlo xhi
0 27.7768022710012 ylo yhi
0 27.7768022710012 zlo zhi

Masses

1 10.811
2 15.9994

Atoms # full

1676 2 2.9678286345128018 1.3233817568774888 3.34869123757115
679 1 1.3743004014123117 4.518874087326763 4.007208606430212
209 1 1.6324922529403063 1.5283763922771205 0.9416795956476639
915 2 1.5382449303044143 3.303871157956371 3.4078533680702745
646 1 1.9679207869690627 2.119979522090498 3.9338305773488873
1476 2 2.8270454726882277 0.848244368520178 0.9785225262663811
1063 2 0.5879617131028512 1.112189147013885 1.7187995007886216
427 1 4.581637512899101 4.196284294786515 1.0670722511684332
1140 2 0.8123844494902301 5.447803714830978 3.076205867437954
1331 2 1.5911904629939737 1.8597044605373725 5.284356418685804
1198 2 5.247685026786176 3.8032131706878896 2.1792988444864316
1623 2 4.58971463184449 3.263764264571238 4.774074354661137
319 1 3.1928700387520275 0.5214710471813301 2.2821939695915705
146 1 4.752063872563422 4.612049655637404 4.840208974355783
1625 2 3.583050517496006 5.034030800569233 1.2079706581494865
1482 2 1.5572874117352709 4.699522549809266 5.377842491982531
468 1 1.5124701549473902 0.5472561182626274 5.678951612396051
644 1 5.675551819733502 2.3782372759519 4.590205056158936
969 2 5.975303043156668 5.180523239945991 4.581738604911796
1059 2 5.729033003234837 1.335089369932685 5.467969946956276
1086 2 7.56136937577027 3.5529532604568113 1.6679316267482494
343 1 6.506569004780834 3.2767607456011283 2.4430009946311317
521 1 8.821836086552175 2.962091038987298 1.517803308136224
323 1 8.766293851406045 0.6305974120680163 2.143378744673182
803 2 6.612547456221031 2.5212384335280555 3.5767125762230325
1256 2 7.5916574935211765 0.3567003205700055 1.4606661677350157
720 2 9.178892072522673 1.9048596410488814 2.2517405373657846
1668 2 9.830833189246249 3.5699813580942266 0.7427786966105762
1111 2 9.426397896735939 27.444780862405402 2.838336069156283
327 1 12.633620870259213 1.6650421530783068 1.2685323619876523
98 1 12.765491672138733 4.151266029379892 2.0625157438140347
1311 2 12.930058663557555 2.933210859334193 1.5715687270292478
1285 2 12.731460824050561 0.5845392857802741 2.12561351949161
1067 2 12.424117820583145 1.7909356845163054 4.259439279221207
838 2 12.200216117297737 4.548652322368088 3.2175714500659596
1375 2 13.328430094090736 5.195260806109861 1.2666316795329096
1678 2 15.511564501635291 1.0215632972503106 2.9657744002857624
687 2 15.146278293040453 2.6808702587781656 4.503065097447023
489 1 12.741882686651538 0.6877064945121028 3.5182923555189634
57 1 16.082247454818802 1.9462893873222404 3.8192210039769865
526 1 11.710083831445075 1.731763282670438 5.446039398364389
349 1 12.253606759035863 5.650505764419509 4.025419578097325
1263 2 16.23622491507777 5.172683020242124 2.499440414478025
748 2 16.100506052948475 3.1505521356486037 1.215243917209122
869 2 13.303874871402407 5.86381651917412 4.870052414757539
188 1 16.516737600348694 4.533004013852355 1.3322629051499457
1586 2 17.472073728155223 1.963113716884768 3.7806532033253357
95 1 18.2990556098111 2.094006986720347 4.9145731349449235
853 2 19.662892844800506 2.0342113063650817 4.76472819309532
491 1 20.504766506836685 3.083489664024402 4.88855786355109
1053 2 20.138959513449308 4.402605938437328 4.958686632626135
780 2 21.855351106727866 2.8077694177266426 5.085900572123687
1024 2 18.29645234087295 5.2623992853456665 3.6297554486073684
718 2 21.937021522359593 1.9906831895933945 1.6587726237517575
645 1 21.145770502289007 2.213208357137738 0.5085872110563087
1621 2 17.05901104158237 5.202686638681569 0.2690089066877315
1148 2 19.791693838356533 2.1034372796503185 0.5163243590073266
345 1 17.094924316865644 5.8520022754669405 3.400710305212043
116 1 23.263568420442752 2.2313213840831896 1.619385752140607
1088 2 24.020586183150435 2.0393489032050933 2.7745401195235293
1286 2 25.462958646332208 3.8552684018326566 3.3850496642415724
308 1 25.25231961210573 2.5693361735373985 2.928540372473163
667 1 27.273835943759924 1.8929048845026883 1.8002278045141404
1373 2 26.379801854849735 1.78833345435511 2.8397197366455598
1697 2 27.069609082090825 2.7104262338351672 0.7343912634226839
148 1 24.767943611033793 5.015527606930407 3.240613266244787
1444 2 23.84984435389197 2.7843160847943147 0.47285717159241214
861 2 23.505240962143834 5.165874619886612 2.8025135219531165
882 2 23.530893169488838 1.31705442227174 5.52355541382026
587 1 22.506615630300566 2.0035083200938972 6.007293986855192
14 1 5.000975932539999 10.167563977609177 2.5770547767949283
5 1 0.44501525678308723 6.690107158601145 0.8816562737581295
280 1 4.46698439505656 8.902366823555777 0.5076763837000297
1006 2 3.094023659710377 9.176252022435554 0.46869848237979506
1185 2 5.270077519421013 9.214432844004625 1.609479077270884
1136 2 0.38759825924378377 7.5076224144830634 2.041185748052403
19 1 2.497354180001749 10.408577398575817 0.19880317652209067
221 1 0.30051574749443855 6.733510064180213 3.180732681324153
1280 2 5.421529046535735 9.971841680605205 3.840830352229708
1305 2 4.330921057392298 11.368063600725925 2.2953821612377183
1010 2 9.002274276326066 5.8609547800238735 5.038263668066384
175 1 9.797497472934802 6.203445204862454 4.012759300229574
1491 2 9.073971494352469 6.409165311805561 2.835865757298341
1062 2 5.834554410465566 7.602766910094155 4.0935967534304
402 1 6.243980595224735 8.901085558242398 4.151846698822543
708 2 10.033775853979478 6.914662344302294 0.7206768035108153
31 1 9.618130475002998 7.322246673601029 1.9349034209326004
1429 2 9.551795672806737 8.55430741739193 2.4079941134569705
676 1 9.746403549946505 9.844775100436081 2.1683787945790827
922 2 8.919436717799725 10.599274636405463 1.3175236546800582
299 1 7.851173034593273 10.139659324677178 0.5037565286905823
1327 2 7.552064310069163 9.264096065646337 4.4623484675492335
530 1 6.054405244948836 6.532583052295401 4.923569983126852
899 2 10.942236683596072 10.448643865960507 2.533114790030835
932 2 8.300544564964278 11.196441984744583 5.580058643817158
879 2 7.032933841237772 11.154124449842337 0.02830903402141862
1262 2 7.6852731909866785 8.77516890471035 0.2108841427774712
778 2 11.156194827537112 6.4238386232079225 4.206999870980094
398 1 13.948586923106047 8.628626826743929 2.1254645714715505
1548 2 12.576269659491178 8.763886159907207 2.232235589411498
1564 2 14.653128901792714 8.040195845894962 3.1514910661756588
522 1 15.995235006036147 7.803603984554708 3.1207524254848993
614 1 15.99839455757571 9.07315996010462 1.1566651475265934
1017 2 14.582269555732784 9.173308066625165 0.9767613611601422
450 1 12.141218200026515 9.87500593421422 2.8422516671111935
819 2 12.992350399071961 10.538495724313531 3.750383406959983
880 2 16.562032211489612 6.9512374762595535 4.069542363610316
992 2 16.713411117552784 8.38225983325612 2.092351479193692
1237 2 11.278810998761037 10.835526882922812 5.398665722146698
396 1 19.24304001486839 5.444561424245095 4.665917912795098
842 2 19.442000532725963 6.671922912806547 5.161551427239703
1609 2 18.678362803988776 10.70933026110558 1.5505686446976537
242 1 17.981682800901915 10.473069673035168 0.321800399524864
151 1 17.096949364985246 11.077679503456618 5.538358142759558
1051 2 22.368757534578855 6.610881788447641 4.220860309469495
768 2 18.478815427202107 11.329446909121376 5.661987223866878
1494 2 16.77310396470505 9.875476264999357 0.3421016849532475
312 1 27.672843032777912 9.993722689410173 0.6229507514642263
1315 2 27.490423337512464 7.167172872659238 4.35207342371929
439 1 22.318538182855228 7.671516559367777 5.12522663898198
1097 2 25.452955000982 6.180823746948208 3.660081286649954
1011 2 23.0868597890373 7.527918201165025 2.1112585999087288
630 1 22.93104583094298 6.481792614764934 2.9884707103295765
46 1 23.73377517991764 7.591087262574033 0.9206839708723108
998 2 24.872876750906308 8.437813853294697 0.8508760615460002
859 2 23.466692651333883 8.459998425247456 5.066388822282851
48 1 26.239446611714815 6.640483438503188 4.705507334432509
682 2 27.241633314128702 10.741050569001604 1.646929437195577
1576 2 23.57854515232069 10.827962669405657 4.69584518811473
956 2 27.031253895499002 6.270123573522141 0.38225959289021155
363 1 23.770014142429424 9.703663139578982 5.453257967034428
55 1 25.955539586955908 11.037434142224882 1.8906257589140765
975 2 25.494011585912354 10.951939097764992 3.228356263650473
49 1 24.125158000794453 11.077646656464516 3.459353772799031
1401 2 25.099793508218454 11.504262184444283 0.9267638876667408
234 1 4.064704416907863 12.070755523625536 1.1441784522924205
770 2 3.2521119356961496 11.570333565333112 0.13019647135040557
1604 2 4.507804756463755 13.385397641041136 1.1618518996186593
452 1 3.278707265083269 14.158244270511858 3.9487804863983156
1464 2 2.4957091314121533 14.946595321799546 3.2040264356719335
262 1 1.3544773425579735 15.709634108939367 3.4622005187827907
1216 2 0.7604275644926469 16.436881348944052 2.493960908486823
732 2 0.7551938947093635 15.571770739843522 4.712057155796265
1529 2 4.566800409217104 13.868017488972983 3.5542077685155
553 1 4.960170642730558 14.130666791261747 2.2622329564808195
692 2 27.736330128322255 16.280542581623337 0.19491136825035593
1679 2 2.844475079224875 13.749254140685233 5.198004825601878
357 1 27.66775872297506 15.939410685556584 1.5852734574766316
1271 2 5.945709795036858 15.099670099880777 1.9665263845122387
792 2 10.068722064814624 14.059805262064115 4.581858908229553
562 1 6.4980875354675875 15.230852220891537 0.7021645672833035
336 1 10.456722412561716 14.377305733641604 3.316323820639355
1543 2 9.996046386267727 15.527786769175307 2.736009787821151
261 1 10.346360331453939 15.835792553833254 1.429654336126259
509 1 6.487437264370017 16.292950696516115 4.515416751828636
1666 2 10.751057835189865 14.767069676689376 0.6353484427452066
1484 2 6.803768016684512 16.473439666644925 0.31477976187769896
1534 2 11.175309232960956 13.479022055153086 2.558603171066204
917 2 6.913302902086289 14.071012604926583 0.0200247491351023
164 1 11.382520319051014 13.653921108195338 1.2201273143876419
904 2 16.57786655871318 11.197680260902525 4.27336686226051
515 1 12.449515168200179 11.271687406816724 4.80378532248907
314 1 14.66216622457925 12.465546423257488 1.464731739044748
916 2 14.329871458561199 13.731306510065558 1.811728445314953
1367 2 15.59310154187212 11.762424666085002 2.219023301306863
111 1 15.860807785435771 12.115782489489836 3.536300121389003
1467 2 15.480499871178454 13.346889837662038 3.9371820297137576
1176 2 14.541945613762936 15.512850354850476 3.3976994275492602
247 1 14.807338112332923 14.23132237332936 3.0605389531434932
1155 2 13.15889491023111 12.40666560184318 5.243072780268023
1674 2 13.180626550083945 16.27612167751666 1.4536129631522252
298 1 14.126186300996778 16.44010771401474 2.396288395732408
1378 2 14.213657075581692 11.860293102195234 0.3275648953063225
935 2 20.06945470638816 11.715120488980533 3.1125900853753823
353 1 19.420414679964093 11.809917188883926 1.9374502436125252
500 1 20.93701704013342 12.794495803325868 3.4205373766989164
1470 2 21.567157155971028 12.775521366385414 4.6530379524198775
365 1 20.334769430702718 13.913998195783504 1.369500680621669
1107 2 19.36655757991952 12.962575234294315 1.132930503256734
1195 2 21.199241920212646 13.894974757614435 2.5122718660048906
891 2 20.479879947475688 15.012571574440605 0.5600267531072828
945 2 19.351258514790604 14.765885943807922 4.756224051342749
368 1 19.322699992955922 15.988045506777127 4.146532359453543
227 1 27.44482218578673 14.850228352517249 5.126543367787942
1391 2 23.226133324598525 11.347897845709316 2.4260416208001754
20 1 23.73885112201139 11.485581523472778 1.148999239254298
1288 2 23.927155330273592 14.08971485011198 0.9046196545149026
993 2 24.690063715263538 15.135081768663305 2.9417430623984546
255 1 23.927464300069186 15.186275050578129 1.7674260801649624
1410 2 26.85103567640249 14.907923202300275 1.9867279362240269
246 1 26.016810592900896 14.794378708608832 3.062263895352744
1293 2 26.417539314558315 14.371117382837253 4.32262105683865
1686 2 23.337540215099686 16.39474501588175 1.5413657010998918
1321 2 4.271412571058513 18.35095700738239 2.620369359834715
666 1 3.7320084772413464 19.355568339149507 1.7658146596945423
1235 2 2.6141747386343113 19.106068643232042 1.070509773500805
887 2 1.467989172398005 21.15776454444925 0.9414192055888047
118 1 1.4514217973781793 19.79959874973575 1.0929967546330177
1512 2 0.26820850470286767 19.028478666930713 1.1504452232949947
399 1 4.511393838342776 21.47423984149138 3.0607310894865485
1448 2 4.213063329355225 20.68502512413409 1.9778677663792592
1219 2 4.026208793522404 21.06520411004361 4.300971562358965
302 1 2.2401891750207157 22.273409830679665 1.3230879460097602
1064 2 27.648475479241043 19.667883022643725 3.32618138124666
982 2 7.739366980711839 16.702985275104748 4.037838130749572
1447 2 10.307362141911277 17.136937553950357 0.9754031623847088
1182 2 5.316100464584389 16.916383535866515 4.112523310124172
339 1 5.468547554379874 17.971743697111002 3.187215879370377
42 1 7.7167411122211576 17.758597678149986 3.169673827589077
1616 2 8.919091118535988 18.229592927205893 2.7085294958476545
1209 2 6.645357719072419 18.459676906451442 2.793651897942967
557 1 9.567442185251554 18.25376604935033 1.5055120235005084
390 1 8.984433370680682 20.66274251238258 0.8187088169026988
960 2 9.627766816685117 19.411952610481425 0.7018469611950342
1104 2 9.865623713244792 21.709192519675344 1.1613429501206733
316 1 10.503287724727912 19.57010679408882 4.712547708521982
766 2 9.784118419050243 20.684631047508738 4.75210303652763
364 1 10.949662598993601 22.30179716756461 0.5416487632395127
689 2 7.653511789766569 20.743448236755434 0.6343417628947569
1541 2 12.088505427415564 16.780898584157455 4.757857806648489
470 1 11.441598090518891 18.005171074242355 4.712567335313549
846 2 14.667354860199811 17.749724655438833 2.457730850655547
431 1 15.876437661369573 18.265210157063265 2.8670909535087348
1537 2 11.637556117925541 19.183372718942287 3.9586950293116736
725 2 14.888047447721057 20.7773986840629 1.162716480558031
931 2 16.195458669410414 19.55872383802436 2.8274439309503006
497 1 15.798381617811387 20.678298262014614 2.0973736670111665
535 1 14.596594235059513 20.002504849343023 0.05810246982192093
1043 2 13.269939328945071 19.674855409917775 27.669733257908902
727 2 14.231408146748867 21.963827497164377 4.73073632620696
1223 2 16.289660301770486 21.90976202262658 2.5774724360544585
412 1 12.982691590088118 22.12165335305665 5.171893588201839
771 2 16.889874193580596 17.330089198574306 3.318899842288839
1081 2 18.86775971809273 16.131800327569632 2.8513809486309527
1183 2 19.79869043225619 16.97925700140747 4.897557435987145
1100 2 17.832424125800003 17.544953968022032 1.1943430967874482
138 1 17.889556246083835 16.972058914864967 2.445802525687209
251 1 19.94989339953159 21.40815076461499 2.1646415424356356
1318 2 19.96927633461468 18.83148275849706 1.0094810100201852
1058 2 20.752057596582347 20.385670273600752 2.6205695537430045
513 1 20.430667929536604 19.087400161833955 2.243740501117443
1019 2 20.755992251168788 18.12284039452708 3.089462205937923
449 1 20.56204133559359 18.03715326452447 4.441719289111644
271 1 18.751767505513843 18.40879442069174 0.572480033955455
1398 2 18.5760846497516 21.286331715639555 2.1832201141920335
610 1 17.614970548077252 22.12128867847177 2.766787382636296
871 2 21.120691304565646 18.888549701269756 5.315409621583708
171 1 27.175501418787313 19.151199724761277 2.1711913099452738
40 1 25.25705466187211 18.509266167483975 0.8952494801881999
1441 2 25.872149752939315 18.707743505114667 2.1123523391461663
306 1 27.07438186664663 20.7911332780448 4.03958252115433
1087 2 24.188882956243265 19.2609697570983 0.5404673447231586
818 2 24.09138324319449 21.373488541490108 4.377904409578925
1422 2 26.209239267361628 20.468597651569397 5.038206893908248
618 1 26.16266158481407 22.001292799669955 0.2960944606762311
1496 2 26.25624341220217 21.904365167773047 1.5950502272476539
1527 2 27.249984543100755 22.16452489965519 3.7134980557722477
672 1 25.10136478980318 21.166299481570682 5.373386479336426
1672 2 2.102003050278606 22.894115141921226 2.5462192525320004
1054 2 3.0856905259484155 22.79161990721708 0.33387051826912334
1500 2 3.873870095538944 27.118185713186847 2.4146812474549932
231 1 3.4043475027793386 26.188175354902246 3.37439153036746
134 1 2.394409038408572 23.94736937847584 3.409355446934228
1016 2 2.6049546114200153 25.20464422253293 2.86332864643995
1503 2 2.373782351884663 23.728217405254025 4.741433634513213
1390 2 3.785339265397616 26.365302378481317 4.669092527341451
1244 2 0.9509237946948136 27.321581765283206 4.8938690933988
70 1 0.2383175740288227 26.185118242781726 5.26374621171558
1675 2 5.0696489631624235 22.75908752803675 2.8741777884229687
441 1 4.865171320649333 26.32711120487539 5.497383226353156
1246 2 5.221211168200776 24.68127767438348 1.5525752698915694
64 1 5.537212346998613 25.4019373575406 0.4488940957145623
338 1 5.652446802274401 23.38699618262246 1.8140602769245375
757 2 6.437581602625764 26.430609334963172 0.44435051122692487
1369 2 6.115676209081268 25.81364807113076 5.210342673013572
1346 2 6.725661777076827 22.887085362112582 1.1536618712541635
528 1 7.197419728635715 26.789795396310037 1.463434241115577
1214 2 7.742768621198967 25.90493629446094 2.379029828361885
445 1 8.910961868958648 26.132360170617734 2.998202875123021
1204 2 9.502281916034745 25.2661365127966 3.8385688120911885
437 1 9.834400865691384 25.546909671320446 5.16237034489087
1510 2 10.52921629122007 24.753918972047 5.9996147780399784
367 1 16.07762489286511 27.5743125598124 2.7455673787540444
974 2 13.064172914305741 27.243284979339375 4.0755761130532315
986 2 11.767124653882858 23.07488189123216 1.3542508057451694
1524 2 12.236429844925881 23.231785630523 4.96014701047787
596 1 12.65301304165084 24.09999385642776 1.0558801084018623
829 2 13.937153232239371 24.081419436275166 1.722499950226161
1622 2 12.30809500239198 25.21301218083563 0.31311763635123363
187 1 15.173143356774336 24.515504853592155 1.3248635390408403
1125 2 16.081288927543206 24.75698190759618 2.387983533670559
1154 2 15.605607162786358 24.625978878416376 0.06940153409268171
322 1 16.224400994601957 25.320669366825904 3.6441907935285416
1504 2 16.03415660493599 26.705738502079317 3.8349686917051633
461 1 13.522329820761703 26.97633444696578 5.250848338779935
277 1 16.563678721083317 25.310545013695574 27.115686653011537
1658 2 16.594585105781725 27.33949264942241 1.4855284605318348
1215 2 16.585746051533917 24.651896479399127 4.814274602046448
286 1 16.991489054409502 23.379140995319748 4.63344873908248
1384 2 20.511240502382893 22.53693764291529 1.6151388074206463
1206 2 17.962809466784165 23.106690418157584 3.70843281230562
1458 2 21.258085878998102 26.761816019246282 1.0485517344794058
627 1 20.074032564108368 26.128164517722766 1.3052807823727621
35 1 19.9034433575259 23.424607981514775 0.8480832849599756
1627 2 19.77354594742888 24.76421768281907 1.3109280721351602
540 1 17.758310130516648 26.82701316547146 0.9949859848373055
1038 2 18.978765468325403 26.980300523658748 1.5877254087919117
706 2 17.62854287627561 26.095213135149983 27.60291570003865
1222 2 22.250658606764617 27.34599633288067 4.580687308170658
1082 2 21.876808866647416 24.75729864027608 3.3090869718462943
619 1 22.101626079908065 24.50688728061821 4.695479860126935
616 1 23.468301208451813 0.1686411846035002 4.91559274596366
239 1 22.525460418850578 26.119174676776417 1.1519047445096615
1526 2 22.700619507720383 24.741177916446357 1.133755532940485
559 1 22.702349021897756 24.124154126170367 2.3764111024637797
744 2 22.76078510284555 23.306949465645737 5.104613864914475
1040 2 24.55998573808188 27.197202075273502 4.568581894242882
920 2 23.35482104259505 22.960308917492334 2.7783458513830714
1424 2 23.600854614502794 26.968936489915677 1.1710292608167039
346 1 26.90421398464923 22.69028353824313 2.506334735787304
1249 2 25.32756198444999 25.35699311308281 1.8453881860494468
1640 2 27.40583715172118 23.990399450345464 2.252204217617432
101 1 26.706603766054375 24.955126839152495 1.5389831182667195
520 1 24.930841167699384 26.63859915098874 1.3665078353645175
790 2 27.461058019783675 25.774030623625432 0.7600798673262698
454 1 23.369627117690804 22.545620077028502 4.148077343782348
1179 2 25.873334765452626 27.524377295618212 0.8900390549257571
1234 2 26.622630111120635 26.060516326558954 5.087936821286942
36 1 26.941355497429882 26.91675228428022 0.23767560737332896
704 2 3.7016291702526845 5.569657386850372 5.097710630709395
428 1 1.9857523127866263 0.8620476875296699 8.100757037438738
890 2 2.683238055513677 2.008934614820926 8.380326714891755
656 1 3.380961235201373 2.0571131859866862 9.592951254260065
1413 2 3.2762184028894334 3.222475787183799 10.357710230551183
1389 2 4.296783720003731 1.0069290249673526 9.861397293327066
372 1 2.6054785814525183 5.41744990586183 5.867664513284217
1612 2 2.080301105480586 0.200340533336712 6.919732186844866
784 2 1.3941277955876834 0.18019052206104275 9.191066635306571
25 1 5.506894174035985 1.123488122097688 10.639807493295267
680 1 6.311310390978097 1.318127554906838 6.738370467514324
1306 2 6.771616878492714 2.5820197960276565 7.152313218570041
612 1 7.3877335509109665 2.8099212146198425 8.40076757623586
1683 2 8.538652161409445 2.0287113423735126 8.814486736086769
823 2 6.888740118546982 3.6616576853176497 9.217788187557518
291 1 6.713763581941535 3.481678614714125 10.593018982977895
533 1 9.11376560026517 1.0249013962204903 8.177291717047813
1339 2 9.027920583291039 0.9417723593806256 6.8239731132227455
769 2 6.289112158492408 0.30557483343514685 7.68026010768328
1061 2 9.833721310317918 27.734167960736418 8.812828305401931
1419 2 9.717540247995904 0.775501369827423 11.087139692441061
236 1 9.809352761968015 0.0952288515241123 6.095189795877381
1508 2 6.108302112921358 27.66227342542433 10.975613582223007
1231 2 6.091423512877004 2.3479729643660807 11.033382153412397
381 1 15.11616023460256 3.5411439476302373 5.523224565048718
1559 2 16.123166743749746 4.533728410176852 5.627877740398677
773 2 11.008830249072489 0.5525889498758629 5.6301589753883325
1004 2 11.846061509810541 2.629896550434297 6.431756460091041
232 1 12.926371171672066 3.250624449972535 6.989050216832611
760 2 12.647727376346761 3.7861606551140277 8.251391347126587
1269 2 14.190441168083089 3.4279939043462497 6.501173740856547
183 1 13.449588619488495 3.9872562703111902 9.379510605995307
1012 2 12.807005203440063 4.256481997960582 10.585626826713497
1610 2 14.777139661593038 3.9850188675079203 9.287156368445524
403 1 15.660532940564421 4.1451425464181755 10.345524628397206
963 2 15.475080434699542 0.6910236891614467 7.869590517095848
1368 2 16.745875395847033 4.943055611468922 9.90519952001385
1358 2 14.024294825770514 0.1336820711269286 6.1909869631623025
73 1 15.961429746402647 5.652752825976628 6.399601501241666
1490 2 17.690261269487205 2.30340346364366 6.100995207077849
186 1 18.165910955977957 2.4357163315751804 7.398643796363716
811 2 17.624475056027784 1.6437839086131683 8.313550572889024
747 2 19.17687409926297 3.3523580884969495 7.587832521182843
284 1 19.929173898404542 3.7151698049537685 8.66417754604551
1273 2 21.300294863558413 3.921225804058189 8.430365406069926
855 2 19.4046976076346 3.842203409506297 9.927170302189772
467 1 19.89475407044727 3.1403873302048164 11.008798448954504
179 1 16.859072814425232 0.5294390070563907 7.916373946667475
1667 2 22.160941223917614 2.0030505012833943 7.371245441687864
436 1 22.340219016823266 3.071227730041963 8.195003126163385
713 2 20.957254579526793 2.2918545509597297 10.842999915081329
102 1 0.012094303195805503 4.528409619088459 8.14815536873036
1157 2 27.007034926437186 4.9554859472320985 7.050566117503159
1118 2 23.640172553139777 3.1893779933839186 8.647891479433266
99 1 24.236289080454902 3.8728832762189658 9.66194314157817
685 2 27.72626015352313 3.2682455646553503 8.699448883115538
983 2 26.53090344989765 1.5407690929434643 9.618563775643345
465 1 26.540233710374704 2.874018795324654 9.393906556009696
1645 2 25.572637466386446 3.6449917011226036 9.888778463824739
1443 2 23.53791279277289 4.785480358111835 10.446844597078611
393 1 25.468985723808874 0.7670520203828943 9.896227286084065
1325 2 0.7423623588106265 5.495075555389415 8.729788641991474
1588 2 2.4473709620602704 6.130865375968741 7.0617826887000374
126 1 1.4823165725449887 6.4543314585056715 8.033495106378764
1071 2 1.5820130246176376 7.7509769883894455 8.509942358954468
957 2 0.9528633590833206 9.730153309329578 9.418071253759255
567 1 0.5502477043879089 8.646472018476487 8.756528359799326
474 1 0.8471066142321843 10.851300863886605 10.10830948479157
1283 2 4.616991561822192 6.252270508494224 10.958636249971166
93 1 4.938996464474684 7.581200103334001 11.024544134313189
375 1 8.39222977219606 9.835813229999188 5.370600911350737
1644 2 8.276289616568416 5.735304573748101 7.20263281275788
1094 2 6.157907727222079 7.960821413365098 10.537939616613356
1624 2 6.355681914176279 6.772547576566298 6.264805124447447
216 1 9.333526967296239 5.906721597015556 6.363287656103174
940 2 9.289715596418635 9.050353476345899 6.027872894879792
310 1 7.0775634209704235 6.402312756765307 7.325885092987118
1681 2 6.598257335548805 6.683650605210285 8.601156772501987
558 1 10.110153232207667 9.307866586222156 7.03036893136685
852 2 8.016247018179454 8.559534484000707 9.212673255318487
462 1 6.933525246142092 7.7109807285085274 9.432834245540183
578 1 8.506405802692912 9.33307425790279 10.295990074769504
1372 2 10.36991520693651 10.60591861963709 7.548716545763667
949 2 10.57237730776056 5.939290086663397 6.858770161260647
841 2 8.601255738538692 10.684137848959093 10.017819167252227
1411 2 6.117240165155383 10.979992214429627 6.678286065025139
750 2 10.657602431327449 8.202315260269376 7.700086118246259
487 1 11.27697971400448 7.090492660479449 7.0847179521413715
1407 2 16.279771535501975 10.792986231092005 6.598794957686905
493 1 13.516130005598841 6.414800017700314 6.0600237950040645
745 2 12.635779899270014 7.21508159075387 6.840319282807728
789 2 14.704999773259095 6.190234214194281 6.720131539675975
130 1 14.058665306962592 10.451302858343032 8.395550993981477
1583 2 15.151303478722749 9.633067126365473 8.32604884375904
237 1 16.127193727271045 9.566172583102976 7.302892962831682
1685 2 13.398987856381488 10.74886701353665 9.524650303432306
324 1 16.47367182058423 6.306206191041772 10.003943385059742
1278 2 15.637204535031286 6.66033729854969 11.00102028013747
1298 2 16.953697731540693 8.533787941267736 7.067882616268304
1065 2 16.981833810917056 7.232494847173717 9.148080151201022
283 1 16.863126510651302 7.298013338276783 7.776019002509551
1533 2 21.38292013797529 7.873488390104058 6.042561946408391
1632 2 17.035050663248978 6.164729350768033 7.045327925933951
193 1 20.14932899504793 7.237484426358938 6.1812866191920355
991 2 19.80957865484087 7.257770349150988 9.893666876025874
1568 2 19.702320110512822 7.198360878911397 7.511662992181651
150 1 20.288913270367924 7.667321599502672 8.64626716132246
1345 2 21.18265599432683 8.720088692489206 8.593021529317962
495 1 21.995708689089277 9.409524977209394 9.473669465241539
1651 2 17.995526668205972 10.449774714342526 9.955816793582049
354 1 20.665722438672333 6.998655870700077 10.893617732576985
776 2 21.59419272530336 6.0172436541982615 10.810779105514344
1558 2 22.292283007778508 8.988817387665692 10.715725981718782
120 1 22.740014709079887 5.816246625923278 10.01419967506423
106 1 25.95791700359712 5.850222222571811 7.005028235749347
1129 2 25.649951759204413 6.650256894033533 5.923960156548959
1002 2 25.235800487968707 6.038303881340253 8.202104641844029
764 2 27.070519497036354 8.270781029767589 8.336503627486978
359 1 25.911086107287915 8.940851358153335 8.644031150132074
878 2 24.658259023102847 9.752079405086038 6.570309936773591
83 1 24.39227686963809 6.972103840975281 8.757807129032287
395 1 25.076489747345217 10.754891943161862 7.382429842983598
1636 2 25.904328736551 10.324187217301072 8.470724557470904
1362 2 23.031987451819656 6.659551533716071 8.96320529135196
897 2 24.837441446483442 8.184675808605558 9.1496310621797
1233 2 1.9873131866198825 11.669038630067186 10.319830933273332
1650 2 3.8350416353576255 11.819110062966354 6.450497916786432
524 1 3.8292340691862146 13.162748810551411 6.0964217105563145
542 1 2.337178411281032 16.035013449020457 8.097349011126374
802 2 3.649125259407316 15.905220311267211 8.580831433923768
1492 2 1.7249148361279436 14.945634776226019 7.572474550292677
466 1 4.780323609872938 12.24619790123886 9.774879227670127
117 1 0.31649578678937124 14.84538498184829 7.542517188764648
786 2 4.86784399354481 13.929160752204744 6.535749908945154
550 1 5.089487601401839 14.421717326434331 10.785633029023618
165 1 4.909958021247105 11.459130845622745 7.251508170505139
72 1 4.601109850999033 16.59494548287241 7.855190735959989
1304 2 4.835335611460901 11.500426918734169 8.619336310381536
1585 2 5.393241532146098 13.438433060865348 9.910071795383317
1013 2 27.44615237795542 14.328198278907232 6.439351947578778
1277 2 0.37071126294063284 15.835527616614536 11.235183187218306
1356 2 6.5251863821831 15.367407620352965 5.500080571068289
153 1 10.663093506918944 11.420784626498667 6.464963318258817
896 2 6.892939900731698 13.076457428838674 5.637898000852747
341 1 7.059960127206125 11.767719986276983 6.004201313796697
253 1 6.049314121113684 14.124073799326137 5.833923376445422
66 1 10.479492855198615 15.578658220991347 9.72773471211481
273 1 10.651546348538886 13.070042525021371 10.430819169441012
1218 2 9.334162735185208 15.790888928907258 10.462549123187975
169 1 8.319739197094561 16.616313336252617 9.926375179759287
1003 2 10.54368854342032 12.8552092873099 6.582323075322558
944 2 8.219739406245075 16.76765996021776 8.536127704259467