LAMMPS data file via write_data, version 2 Aug 2023, timestep = 39900000, units = metal

1700 atoms
2 atom types

0 27.8291429493124 xlo xhi
0 27.8291429493124 ylo yhi
0 27.8291429493124 zlo zhi

Masses

1 10.811
2 15.9994

Atoms # full

1116 2 5.005812283765195 1.5435146645452205 1.8500640392255527
299 1 6.00072411672755 2.2883255495763977 1.0866522749455463
425 1 5.113868740056994 0.4352669749391625 2.6634993186553224
990 2 6.178406507812016 0.21810291975994053 3.51148096085645
713 2 7.250141448722011 1.7819820555371058 0.8518398153248079
567 1 8.462927117675367 2.339663056590953 0.8610284006962642
921 2 8.872271062440243 3.1545312125394926 1.8714851427669
1614 2 13.175361153694443 2.0558856565047656 2.537975352341938
1063 2 13.217513271692704 1.6822620812010964 0.3161056895811111
120 1 13.798719629459125 1.3686298037317246 1.5050731583771448
684 2 16.434206864127365 0.8333318815482488 3.2750362284386147
1603 2 14.648698848165289 0.3107913111137284 1.6427339780801005
532 1 15.828092746251917 0.047550283913147716 2.2918449016092435
1239 2 17.86993274943918 2.3870334408071914 0.897523473266044
1345 2 20.867171380655908 0.7404526666812751 2.758964460879509
862 2 22.88502068118814 3.08712718686592 1.4204776872538045
632 1 21.70212813533366 3.230247096034006 0.6559597861234112
1254 2 21.77166577600792 27.710653474253718 0.739244377804042
589 1 21.538777657387225 27.532064411341672 2.1049311259349834
1562 2 26.20590412716993 1.0703036172318197 0.9953802739642139
1003 2 24.454132128134646 0.2081922981829695 2.325135410543997
307 1 25.207696809337325 0.0991349057685991 1.1714894943915353
610 1 1.1484794298829504 6.147829360953932 2.8724725567979132
1331 2 2.209656291543276 5.703336045872457 2.1145015155805775
139 1 2.5818343408856053 5.565366209941641 0.8074160672766887
1377 2 6.429238198349674 3.657008486796997 3.5708251882643456
1150 2 3.5626919118005724 4.708143336737672 0.437408481740073
1649 2 5.624965222247192 3.5685962901933705 0.7593677593978945
1629 2 4.264897087902703 4.202651131374488 2.6413818386345556
633 1 4.478255141571976 4.113264098339403 1.2937652076473212
1513 2 6.329199163865151 6.365514895287002 1.4366514768537306
485 1 7.652424145080373 6.034343420831198 1.6218202524694418
1555 2 8.170205800414946 6.103309741368017 2.866068933667472
165 1 9.443567572756423 5.7738666416533455 3.2488896531585802
1427 2 8.293155725575303 5.597849015539886 0.5276296750071477
103 1 9.928477962058484 4.07059000651661 1.554195392550409
1482 2 10.295893309840258 5.057432430226327 2.4725240820582424
1351 2 10.710853788391365 3.8881358250008633 0.461549130817948
494 1 12.959956515764418 6.11494994427009 0.24376837237909724
1419 2 13.47693464488138 5.81717126560742 1.4910945918321656
728 2 14.777240083030115 3.9993025183827777 0.5055528042586673
10 1 14.468148343689833 4.84572575326662 1.5763713241588309
1163 2 15.16001919956754 4.654347010420151 2.750074488833405
707 2 19.32670184129478 3.429509099186087 2.3817923859028216
39 1 18.719004500656172 3.457136412146168 1.1208842736745386
369 1 19.637077160044097 4.5012594839068125 3.1964424270001213
1539 2 18.88964131091705 4.461326112259269 0.1775072137990753
320 1 18.593438399552454 6.808074650339257 3.559087338236954
668 1 23.866971994295568 3.9890508863796623 1.451169028084956
1270 2 21.21081151133881 4.514830917697458 0.44094643210502943
1588 2 24.02518280135351 4.973115690265248 2.4279730982157415
319 1 23.418900760752262 5.141175961424571 3.6455531871482916
951 2 26.657368457212016 5.366500722348773 1.2130349052422669
30 1 27.0649804510992 6.672683698274473 1.3600466617021292
1062 2 24.914343266812544 3.8823799549053333 0.560158164342027
653 1 25.47870519154289 5.124298756840821 0.3743532473122744
1321 2 0.19665735099096934 6.94752408667872 2.320862985095598
772 2 3.7079568319477287 9.382164052906097 3.4716779450219772
1554 2 4.658044975976586 8.144532653499269 1.57919551155028
214 1 4.6414114854331325 9.28462687381883 2.407624139706373
362 1 6.01533205317175 7.799209582633362 1.4941911012936926
399 1 6.615637807645641 10.111413836105843 1.61270208379216
1615 2 7.035751069111251 8.720507767549437 1.5071131677354337
1223 2 12.156108727197545 7.193044979702072 0.27154185662257513
1165 2 13.480550427115382 9.695563821633248 2.5582102563288145
676 1 13.12415073711351 10.357633144094281 1.4364718879899594
663 1 10.900351578074138 10.565244517037694 2.1574271791455994
127 1 12.496729113379406 9.303058172354877 3.42626121683861
1228 2 11.30568012074126 10.045271492929379 3.359202034821865
1167 2 13.913684523849412 10.355601038524705 0.33929386892229
1319 2 16.86696765863469 9.165405132632532 2.9459746690909077
89 1 16.24153652330047 10.373178011655646 2.741683390370523
1251 2 18.25103062981305 7.388762736761098 2.3454062292052447
476 1 17.88681445356908 8.693605371178089 2.190425312496978
1015 2 18.538533699976057 9.457811101058406 1.1875937050762588
252 1 19.843376344808313 9.101734248055552 0.7350430184746689
963 2 20.816067683063192 9.096131347843581 1.7371453007117215
76 1 22.161478975948402 8.852590667141992 1.3619807134895792
843 2 23.149075815029516 9.198491484813205 2.258527160135621
1308 2 22.54848531363619 8.53026972752247 0.1012127520793489
141 1 24.49697121018636 9.43014548197619 2.0151411370944015
771 2 25.417981395551024 9.007941214866136 2.978419718500134
1143 2 26.633951163453983 7.681247305730707 0.5374364786352523
1509 2 24.943268332166674 10.076649163006081 0.8882369620280545
1013 2 2.5130259956905903 12.220163958812723 2.6535486621630286
429 1 1.1543839464220942 11.873096676842385 2.94101409603406
308 1 2.9060776058755486 13.584570571022473 2.4982794362908174
946 2 5.440492388960563 10.385978711590127 2.1770946455954534
637 1 4.380132390337138 13.239176925333371 0.5714276797990301
1206 2 3.9205225292479438 13.907757424966393 1.6365961581372772
1659 2 5.647602186077206 13.45597901532796 0.13069898831147972
1342 2 9.543739287742266 10.903036378431574 1.9944104191304466
412 1 8.770394979043703 10.920622596205018 0.8461022166489254
1153 2 7.33193087226349 11.16285625207777 1.0264935276557745
1011 2 11.792729787252627 10.87269260431921 1.1731406940392684
685 2 13.062927175124948 13.48358461768191 1.3890809493278231
106 1 11.965777248616122 13.808179131040584 0.6555066324861641
452 1 15.322886054684982 10.35868239109664 0.41815250636586176
1405 2 15.897525374469502 10.874800389272513 1.4955559127161915
431 1 17.26571443267775 13.256263060375437 1.2536935642823512
1433 2 16.333239748447536 14.037303013562541 0.6776439754357295
1077 2 17.489450448135 13.147396861191151 2.6020056401475506
662 1 18.73690832910756 12.806478409150031 3.0098113427283932
1372 2 19.80173194310125 12.51055283634226 2.062417312437684
206 1 19.436756131757512 12.416263093549672 0.6769959541224639
1421 2 18.111619146746623 12.661013259667431 0.31882135922476057
1265 2 21.564586503851338 14.107116341671642 27.760545476828977
6 1 26.14656534967793 10.539851550744334 0.49290604210329947
780 2 0.1772563868871084 12.797147349786904 2.628530523128278
727 2 26.94737450467021 11.436059602240283 1.0918769129394157
409 1 26.816313978338517 12.421697983271136 2.0123351894287995
1490 2 25.593882175164968 13.007826717482576 2.2149115535545865
804 2 1.9210453008276192 16.24347684679747 1.9034294735073696
507 1 1.751252000147913 15.691369792689775 3.142241533901189
639 1 1.1793731920114023 17.38189509552287 1.6529973345091953
1519 2 2.340309006294771 14.484970110862353 3.4571870913979375
1267 2 6.678749707143097 15.593446025954533 0.8467831640576349
423 1 7.5671612289476675 16.60148282379644 0.4395394890899923
931 2 10.378473530228163 16.659985803971924 1.9994963641576091
1027 2 7.650511828983124 17.026470881546082 3.34915720226152
895 2 7.543237729376255 17.77297355567144 1.0994951398337298
1466 2 10.864216949124927 14.51330826042661 1.1816928867383323
312 1 11.099070061251116 15.845806244126043 1.1056480176336756
1103 2 11.940919815407776 16.25779316012718 0.11104937058840018
173 1 10.759577207373164 17.31929685158474 3.1144559907214946
21 1 13.93489368101669 14.21019433518053 2.1574471954938863
1380 2 14.600265707726624 15.342563987518627 1.5929008907020892
393 1 15.828869222413495 15.308428990870393 0.9891207429137904
934 2 16.467895787596287 16.433735520990965 0.5772123162869777
5 1 17.91147357507647 16.42623323057304 0.44913656310028205
501 1 19.272102864508756 16.12074674004524 2.5039416420287757
905 2 18.723708969944838 15.70173429314641 1.305725493595999
1698 2 19.52002628789836 15.152647196243018 3.4113858432934925
1018 2 22.827996308189412 16.142276713596917 27.65166841163856
599 1 25.197655231259468 13.94682166946806 3.157227103354436
1523 2 25.853230819190145 15.170906057705748 3.3931942853061763
764 2 1.2179013573602722 17.90734945298053 0.3839564135570415
1389 2 5.4240631470491305 18.819907533142135 3.1755189214176625
31 1 7.717979570882829 18.04142873914491 2.438133505643517
830 2 8.135640914798447 19.325792068388754 2.814639185800453
237 1 9.50400542963375 19.49499811406162 3.080406830081093
1068 2 10.09447159943753 20.64968752387578 2.7935723333655207
466 1 12.596418278253344 17.443408160504493 0.18378588183450445
1127 2 12.463505138498649 18.357224800474157 1.2973320595247821
564 1 13.410026562519867 19.355556459314336 1.427099304787676
1613 2 13.259172411764284 20.4415121673563 2.2344911400241956
846 2 14.521298582452749 19.395016169804173 0.653584139472969
1132 2 19.30243235457558 17.453166347509033 2.7982132097703545
1324 2 0.3533661596031041 17.921249529972194 2.6598116349519105
1158 2 24.881435917061747 19.928144683475388 1.3831425092198362
236 1 25.160401623538796 20.13562666064809 2.697091027878009
1695 2 26.47855690335814 20.422704096962256 2.973524852405497
540 1 25.781184694308468 20.198155108915834 0.3909221728116075
1108 2 0.8633001230108356 20.8813081888679 2.344781385458225
1426 2 3.1890003059771854 21.01734692329615 2.407277958645234
96 1 1.9616862843709653 21.61705249960739 2.0753463570064805
774 2 1.8887060754504945 22.871406151361445 1.5194174453941311
297 1 3.124882399028722 23.50290805806812 1.1855103060290624
1697 2 5.530851736460181 21.279360569377882 2.7994693072046792
375 1 4.327632391342351 21.7546794977135 2.3198802347299354
916 2 4.294810210777405 23.018515494559452 1.8133592333156359
1285 2 6.919787814751215 24.120046964539753 3.5463831158767944
171 1 7.741479781073582 23.51928760706007 2.6007989676726377
519 1 9.616649206238971 21.84376787534617 2.424315176156012
958 2 8.57747962161108 22.491682794266605 3.00817194063584
1432 2 7.844074236007316 23.99616831489303 1.323734407997563
941 2 10.422733866238758 22.476781157308622 1.488302297812467
647 1 10.673273589102083 23.78962540637164 1.3052166064936463
158 1 13.39827205307172 21.68472293031772 1.6211773026641279
1483 2 13.090687330935275 21.896045302040072 0.29510954682247964
1402 2 13.855500661293673 22.841582140136907 2.3229061637594457
1553 2 11.047006682122932 24.318219498690784 0.04522713400808698
267 1 14.624569486860228 23.691124996473462 1.5564221963288856
1052 2 16.703021174295984 22.239505993750626 3.018282184887535
1658 2 15.000721222681934 23.337053034634035 0.2675110152581001
511 1 17.666310352663906 23.187566632513445 2.579504836916792
1151 2 18.92717361224875 22.742988609814827 2.232841530051007
163 1 19.11451495346685 22.106823948580214 1.0659914229982115
1312 2 20.455685559781305 21.692241643628343 0.6792748115084429
747 2 18.128946697900343 21.692006063070018 0.2575774267967896
584 1 21.460410413927768 22.114400152512264 1.6082919154473787
726 2 22.1805031817081 23.184352427734638 1.3302010331713803
719 2 21.767079635584068 21.405437413500003 2.7497673692074955
1371 2 27.014622497850254 20.792474080426864 0.64234147648317
184 1 27.378667051433936 20.764498683745053 1.9855767275042353
131 1 25.395652288234437 24.122425104963753 2.5420995799292028
1001 2 24.92605702227527 23.674804427474854 1.3637826368609907
1470 2 25.94004529806607 23.145471200198312 3.3884552271935617
796 2 3.204937309504799 24.618298013556497 0.36839575942692815
1280 2 4.070279449427616 27.33449001592868 2.5220689259824325
175 1 6.003435147097431 25.021777686837833 3.0005982154855544
1425 2 6.080497096784068 25.491353832199536 1.6636435674281083
126 1 3.920819030593612 26.19133998861718 3.3117405039819356
702 2 4.9570375337546935 25.408021014328295 3.785442164344508
451 1 7.0162500065407745 24.973270912854158 0.8091124266834898
939 2 10.796768838064128 24.66913252273818 2.424798156153992
1692 2 11.799170975853649 26.355028512551925 0.9239034567175638
212 1 11.615182613066455 25.816617363709145 2.2222972917297383
479 1 11.891044917491907 25.374160070872286 27.808322451652202
1097 2 17.358319808039987 24.52151489656914 2.2293864708421447
1131 2 15.01752003997192 24.792951072659328 2.2302187386375874
137 1 16.260411872388403 25.34977293283275 2.1281383776680025
1514 2 16.51328547822405 26.692634512417843 2.0174002261941997
805 2 20.959866312811297 24.890897488397503 0.3633871902947636
591 1 22.124774890765956 24.175790940779944 0.4885334074684768
353 1 24.583445768206694 24.09959997916486 0.11557290583231293
725 2 21.9251918484197 26.385584011815606 2.670617682489766
1550 2 25.65446651459581 25.49844110280461 2.7783192440828417
753 2 24.82219678433871 27.166861925811556 0.06345390471098396
64 1 3.207120132015455 3.198555648475683 5.203127449441465
969 2 3.073597739282591 2.6649346656081763 6.490785983153624
474 1 27.637002573309243 2.6246665046659414 6.627376359742943
855 2 2.1996423970724304 3.8199202706566897 4.457049041142248
1665 2 4.421524178620942 2.900440971565029 4.66400564481804
629 1 8.624341204230879 1.0843337769729455 5.089488472178698
1023 2 7.93248658846619 2.243014901909374 4.7590327505723335
1627 2 10.040679298244033 1.013835782924546 5.201781864142769
372 1 7.114591303709954 3.365389271929006 4.778578179955992
1030 2 10.34563811647929 3.290742394459071 5.826497595532897
71 1 10.872784354329527 2.037595423951433 5.699057798041368
346 1 12.982201781652142 2.825703066092142 5.8960403411338405
1170 2 12.13855970071434 1.756294739157033 6.20304009512048
1646 2 12.915608446036295 3.311968572817251 4.5741247603034365
1530 2 13.906863198937574 3.2786881426102603 6.78167221068493
259 1 13.584849863145754 2.3696813088139272 3.8186099809280916
101 1 15.937972117849952 1.8272795940144984 4.100647675577944
1317 2 14.609547640936515 1.7395607913607916 4.439293386994631
1266 2 16.77783615156645 2.8130713088211023 4.39555795735433
881 2 20.228093598701047 0.531296515963979 5.062320031213581
161 1 20.822613898244377 1.15640013277822 4.061580854318756
1370 2 18.163909600509978 27.802148870053713 5.870151805791134
378 1 19.30434461861631 27.364846806996066 5.193126710308804
1189 2 21.43571226847406 2.248701559360312 4.535101042786099
1680 2 23.650679503358305 0.41348395499178625 6.688086410268834
443 1 25.223507361846785 0.5655190057452577 3.4613163750936002
832 2 25.146860641486807 1.8570131422591372 4.033788685534854
1105 2 26.743824535762908 1.7548894832983724 5.887402545026777
332 1 25.84775342863313 2.4652905997969228 5.021970195122099
988 2 1.0335903388761296 5.8275254671377335 4.189609354327595
301 1 1.9490782495407104 5.103230942991784 4.910370258512753
1450 2 2.3113875500825536 5.495336319182539 6.191337454034265
468 1 5.012574711100736 3.5791677564047775 3.6227756367491852
688 2 5.342341612309715 5.72766664071432 5.243684242619354
560 1 6.393714314965655 5.371887480232453 6.013568961114892
1182 2 6.815587193506293 6.054207165125414 7.140214349739892
1104 2 7.212419862821032 4.244482023408335 5.765527760061303
831 2 9.871006111145949 6.268000318520336 4.472556735822164
493 1 11.013361431149095 6.360082391198299 5.271182278371692
1625 2 12.226682236021862 5.896934913998925 4.8104203815563755
164 1 13.062414654759952 6.845724785046797 4.275164730689641
593 1 16.700769278308005 3.9305990330563914 5.225064885840405
404 1 15.153227848803686 5.452702774180578 3.8874030774265513
1282 2 15.996385827365824 5.1117238606827256 4.959257667906509
1650 2 14.332036218506172 6.550912892291441 3.990388083832626
1479 2 17.388304019850242 3.779993236255126 6.396237838131008
1070 2 18.684841416914896 5.429644258513053 3.5629040569473713
778 2 19.742573025810724 4.015983161587282 6.754112660449506
1544 2 20.869133649400403 4.574694493320422 3.8763769746055825
495 1 21.77219877204779 3.5631978533106192 4.288353272839801
1437 2 23.29963454762402 6.460634545604215 4.043580774149638
692 2 23.026728569232212 4.052073878738559 4.46474225630469
611 1 22.184023059229805 6.926226174739696 4.869897179528283
1157 2 21.93961942624387 6.664182180479645 6.172711110627014
1218 2 27.596568132153546 3.9869452090320348 6.692200252288616
1064 2 25.75453042728985 3.8746941078387374 5.121709793689366
582 1 26.545259517606418 4.6137103296947926 5.981887258348598
751 2 26.29396399019117 5.933838447160772 6.241931945806227
592 1 3.1314687406985184 8.422599390496375 4.312567069752412
787 2 1.8499027032640947 8.662974327541896 4.7710729390955615
243 1 1.58602975178177 10.028916678102306 4.588392717474824
631 1 5.086258880448243 6.992879398634834 4.746666390692928
901 2 3.784142899690434 7.222310492484968 4.457349859561846
785 2 6.13973550790662 7.809422874720302 4.410652377999175
723 2 6.802139274118171 8.389173656974242 6.642713871173147
1088 2 4.1995659936081795 10.625065163283894 6.054704428683085
464 1 7.054932579255325 8.375706445115595 5.28957920696247
1673 2 8.19758399297649 8.964425506342197 4.8446185117787754
449 1 8.975821777694366 9.75635673765213 5.755123758163337
1638 2 9.888562501355405 9.239775191450097 6.595632897773553
4 1 10.162298809642378 7.9056751701936046 6.972993533726763
714 2 11.086636094593539 7.114351163156518 6.405191213898554
1630 2 12.530678455089308 8.099448492034176 4.152657847905519
548 1 15.284255816270518 8.546430248744896 6.116587944058543
1577 2 14.954106198796051 9.53750746855141 5.229757788445479
1374 2 16.597777956732276 8.179611645587919 6.371120590072268
1465 2 14.29581580838344 7.7991490107566666 6.717192283961903
1119 2 18.842617764212246 7.682886062600828 4.660114236867128
1551 2 20.19700626806794 9.694261038281354 4.7731810370489
248 1 20.076071010412026 8.324894388788243 4.5931619160035515
899 2 21.223746606589977 7.637879601720557 4.175088746211495
371 1 26.742427689182872 7.225624303944873 5.93541424781095
1327 2 24.706672814800037 9.226155293371667 5.264583077987628
1263 2 26.5254074597867 7.852110863337929 4.737404669621033
417 1 25.53020212187893 8.676821363263256 4.308301902163806
741 2 27.198944655747855 7.914046501646778 7.100959966447119
1040 2 0.9642501849240435 10.579039476146159 3.461680954785551
720 2 1.8941868232897217 10.877114399772706 5.600162622615211
1146 2 3.2132493935832604 12.731253362349912 6.312860324881482
566 1 2.185895650573938 13.678216700416868 6.2829897981461444
170 1 3.0944030411320655 11.36974656197386 5.997805002151544
1176 2 0.8506621973113666 13.227909589238225 6.063551883604016
515 1 5.4617008917777685 10.932816098939497 6.5220028516696384
1700 2 6.41702635474198 10.972393812392191 5.606917326636346
293 1 6.983513743210815 13.928845615482311 4.645183843542534
1236 2 7.5018927891126665 12.651659511888957 4.278091613251659
150 1 7.609347746289586 11.598439707139946 5.181643781711886
1098 2 8.834176804416826 11.108720582957988 5.6906440095674595
995 2 10.313900469459346 13.701411010580502 5.845093211919999
1071 2 11.533620397807395 11.861912311048043 6.710356102698106
424 1 10.656198403465103 12.884069359342142 6.9009810916709915
912 2 14.126240911387667 13.760952046949722 3.4202375932352793
226 1 15.751445854277318 10.61148652626493 5.102927012155091
1262 2 15.864352739412727 11.16184022800656 3.814922491724498
1637 2 16.255620721191487 11.249449236451277 6.185195258434017
506 1 19.782498593437737 10.582505429635441 5.7356202512147725
1035 2 18.48365031771255 10.541243352516586 6.140813910875593
400 1 17.571132172898007 11.55898454891395 6.267098989619987
998 2 17.951771129802935 12.89389852538452 6.497450208612744
1448 2 18.96426079294963 12.627529547683693 4.399263218633825
667 1 18.644817281982515 13.377508569256413 5.505272129252581
1587 2 20.7180944996047 11.407386142998714 6.263073503855546
59 1 23.91055074667447 10.35926003068764 5.081284946860431
1315 2 22.960123660409263 10.555536484200767 6.0020297760763315
578 1 23.44427753628524 12.483588772912617 4.141788603717447
869 2 22.127584487414406 12.414097457901603 4.632169234820442
536 1 21.913731214572312 11.446962733427785 5.579388630791126
1057 2 23.95195035380709 13.720122555354761 3.8018288852728235
812 2 24.186491430679162 11.296055681741688 4.092921946293298
927 2 26.35117046306288 13.748169197399799 6.095508871211064
132 1 27.69022276820876 14.17067772879996 6.210442234298411
18 1 25.25176604786151 14.075276247349183 6.874665607334914
918 2 0.8817381669007077 16.126740246926154 4.069027563075017
1439 2 2.4979401772774086 14.97712994630364 6.601445101319853
122 1 6.585973303412548 16.077260021428845 3.555505852661646
1041 2 5.282402938590655 16.543092609789642 3.7821669994704363
893 2 6.5296256354725415 16.541717085744573 6.5879162664888895
849 2 6.535440271530858 14.306427267313374 5.893331820416398
1657 2 6.790736402775043 14.756122751577367 3.5643602416191236
952 2 9.564812000983174 15.997129336985243 6.114545698649678
99 1 6.811004080637872 15.214766426718931 6.904423833776579
947 2 11.798627645135262 16.733081782147984 3.8512717139498127
539 1 10.53896307484289 15.049671846276691 6.1702456907056575
198 1 12.872837951823744 17.19877181209707 4.529022858703709
1507 2 11.788465058589306 15.401835147193296 6.749328413154494
1599 2 14.45935011354953 13.927798014659485 5.705123663016379
1193 2 15.880084384975984 15.237755654127474 4.260452569725143
283 1 15.45641989264791 16.549987767490137 4.056049572546895
24 1 14.829641822521502 14.35408421112908 4.432215385447919
885 2 14.104768727096756 16.76914812498429 3.965780553953056
1682 2 18.891061536702644 14.7727075323701 5.634838303390928
488 1 19.494903333677296 15.54805254636536 4.7408559240904
1645 2 20.049355057571827 16.808907923318408 5.056123532088393
811 2 24.43613063901835 16.414729082856883 5.071633202015984
356 1 24.397708873562728 16.465743841975346 6.425868133307415
273 1 27.7895820654132 17.045613683208153 3.645150255960049
190 1 25.570059707300867 16.23448554482008 4.264874740522357
1210 2 26.580405565588915 17.2283767832347 4.295721430296275
1527 2 24.947894077499136 15.390867649500912 7.219057170108144
1272 2 0.09606617803153521 19.926712556632616 5.696696798075626
271 1 5.412537621831302 20.163234463002542 3.6468740978611636
177 1 5.020819445677888 17.894246891324755 4.079181263770724
1336 2 4.254275655037732 18.167221525254046 5.1745884096368
659 1 4.485532852608002 19.45630555558083 5.695035985257462
1126 2 5.04278237005542 20.422928767130976 4.92501859952113
1485 2 4.155935256558082 19.709228580956733 7.009468031466172
1557 2 10.279717334804277 18.491775589658417 3.6337432242018397
1037 2 12.627514634882578 17.71667838061727 5.766916048700305
551 1 13.474403324920178 17.886569743987078 6.898904773127255
1175 2 16.465234196214688 19.81081420357504 3.4845731250124463
1406 2 16.405108225574455 17.478833810351194 3.9577413801387324
520 1 16.676427196890586 18.785544259263165 4.3390986685124595
1364 2 14.568186999905635 18.6843842881303 6.9889056880503775
1528 2 17.296152529919862 19.01501349451926 5.541549474080164
509 1 19.932181051879777 17.707736164671555 4.035087052172886
272 1 18.0141222907776 20.27198771761277 5.708791929319556
791 2 19.02799510797184 20.245450024890072 6.640544013827549
1552 2 20.433709842661894 18.984364326499783 4.244386503895682
1020 2 23.987152001234747 17.592117086992086 6.972842076282571
195 1 21.46394706733252 19.486617860502854 5.024537433139843
1570 2 22.130500321700925 18.59143715005311 5.809304060026999
62 1 23.39042128675701 18.74506785053144 6.387708885196513
1292 2 21.785856180667672 20.827728539235572 5.07577724149768
1084 2 24.205036000120668 20.107524081148316 3.7108750640064856
926 2 24.232649549576426 19.759492262560947 6.048827357355772
32 1 24.511019842355815 20.503680067307474 4.962946646902999
347 1 27.236954977073307 19.88839298806673 6.824562857200174
822 2 1.7988515853911957 21.658544662935896 5.821523227744702
497 1 2.0120091375162272 22.979221832818432 5.97970648777372
298 1 0.476941623272 21.274920428303513 5.472107939096098
909 2 2.3254317505281246 23.716069427123568 4.852120015470261
1636 2 1.5144659403829994 23.522408377388427 7.244679441770179
1306 2 4.637253159416469 24.25844221115972 6.399197781395344
1407 2 6.259765103578738 22.568288921931064 6.904321265689256
598 1 9.640158493594122 23.34786137880905 5.800162456575776
1033 2 8.492477930390441 22.67500779526797 6.029287613943177
57 1 7.3975750123939275 23.3332840680278 6.504247519186993
1330 2 10.673089750936718 22.817784750550764 5.079854063470874
955 2 11.182396667279578 21.114987825743846 6.654439973170193
1602 2 12.943879232751549 22.423535416863096 5.5090280103171025
674 1 11.623797591636638 22.07696278904206 5.702345136463446
665 1 13.492785820770584 23.676254527112377 5.439758672434058
217 1 16.949849404603036 21.107151100965726 3.798707903865507
961 2 14.7838730747514 24.009691055370865 5.96745473973672
1375 2 17.684595947792314 21.32218110915581 4.939964765439592
565 1 19.806742296629004 23.160006836040683 5.211587597543272
1219 2 18.597845420632027 23.84152518689028 4.802390979889169
1059 2 19.95039342826608 22.85741716006575 6.53600375391337
1475 2 20.81451485868756 22.915754211885034 4.320395339100822
290 1 21.42372519198607 21.714286679615448 4.024259709396481
1006 2 22.94569037756776 23.59300276124739 6.143778053439894
1293 2 27.537972781966015 22.259497824931888 4.87118167155397
1447 2 25.05554120746152 21.75940234608394 5.089323343583749
359 1 26.175683171758465 22.30883421531281 4.435964468523071
1669 2 2.639245299534718 25.722588304560066 3.5840659978428695
395 1 2.598117312888127 25.0249926872973 4.845113267148463
984 2 2.896971750350311 25.8223449358546 5.977181027483796
388 1 6.478732837541387 27.782622848533183 4.837776118011744
1124 2 5.500352409958319 27.61738470181767 5.782657797835143
365 1 4.122146912943627 25.508142329253705 6.608392950109827
53 1 5.665765929669891 27.207205584522193 7.146799226112014
1287 2 7.832896539347228 27.70712016326213 5.204876790477008
1177 2 9.733063994318739 24.626603388354663 6.417097543133329
105 1 8.603152401756182 25.231941513885022 6.994253981458137
1486 2 7.404447125383001 24.730926640783917 6.688479500741378
1563 2 12.269703022856566 26.325981770644756 3.225494569146781
1583 2 12.650318047481086 24.63687530071663 4.868818959251435
394 1 13.001528320095282 25.805562162655292 4.350912734887125
865 2 13.991792350387282 26.7394623029468 4.745178458179325
1122 2 15.850665330549289 27.485084783810894 6.146847150918199
38 1 14.598437113183147 26.87792134734509 5.99285550895908
401 1 17.053966723850795 27.02173271258282 5.72956280732851
1590 2 17.1424628025097 25.700682679460236 5.227838109370896
340 1 18.390566539468406 25.152082624627138 4.985766899693811
1094 2 19.46432131206502 26.04883770434078 5.0118009461187345
234 1 22.418919039000176 26.28790692260662 3.9392946405485016
810 2 22.851756175627745 27.432865600285126 4.604683062058471
419 1 22.87821769261513 24.856574035762463 5.69954763535256
793 2 22.739217503823802 25.035828537048843 4.3467273888328775
533 1 23.123609174319604 27.265901730636518 5.895617830779997
1173 2 23.08809767495454 25.97848719378027 6.490693310293772
1434 2 0.12325762187483032 25.052188312537705 6.133418165678171
1348 2 26.297344634636044 27.559803595110836 3.780916663443203
123 1 26.014202883676916 26.16561975471544 3.9090549229982914
1500 2 25.818362510900272 25.693134307174223 5.163637862670469
523 1 26.69519245066234 25.631353216951833 6.2084695440498425
1354 2 0.8781185262424994 2.0288616173535954 7.274512813889365
47 1 2.239103093092498 2.267430980736052 7.481106597072997
58 1 2.5414107078583474 1.157955477317119 9.672034977124984
1399 2 2.8298290765069583 2.1006251930778 8.7059015477434
416 1 0.37063749282573705 0.1924850966692995 9.829772782609739
1318 2 1.677505993918708 0.07288086153509903 9.3755367462781
167 1 9.634200000735682 3.3876952618103036 6.989355787395572
1691 2 8.959505209370613 2.241217564852717 7.457254032530843
568 1 9.249526836707796 1.7905604644155695 8.74426887074062
1356 2 8.68270838169583 0.5617265576003203 9.03504503035759
900 2 10.072780755813477 2.4611484453403816 9.560320109450144
1133 2 12.822335796661285 2.8921947866086724 8.887288229090778
95 1 12.9060914791326 2.754760538877678 10.239350932528057
575 1 13.98590059876023 3.0726171262873203 8.162673878458488
154 1 15.326625296752631 2.7484085910248983 10.061688186850823
1417 2 15.24284649849263 3.0919164703800077 8.693630192611264
1506 2 17.596865024367506 0.2899466519402519 8.917536406861872
1141 2 19.553066217373217 1.4976908803128461 8.384052943399112
277 1 18.96730365395349 0.3230266215933255 8.7710383231451
231 1 20.86530508929236 1.6694434640529057 8.090487322705368
1049 2 21.490938742187108 2.8937949080341308 7.779683862149076
529 1 23.087045338087172 0.6712662133368416 7.907770902948629
1420 2 21.704306310666304 0.6240604259677937 8.06978911523454
1545 2 23.905553154446164 0.9078233440292228 8.92346614895221
784 2 26.567701965032157 2.768167305881892 9.671389411020726
235 1 2.489251121417599 6.535429454187347 7.049001865014944
176 1 2.8625913203265534 6.673332752210053 10.23597625730448
806 2 1.414184560550357 6.883315053915778 7.825964668531958
1501 2 5.334177563719841 4.449260523764112 9.640840837197523
462 1 6.533021764450618 3.854534243076586 9.886848639028097
1203 2 3.817725089822354 6.961090330679114 7.362316783715161
691 2 7.578456769655014 3.809068400822184 8.948958765554627
786 2 9.514830544583837 4.556249497026531 7.648614323312688
330 1 8.677971444932274 4.674209793554202 8.806410352298384
1229 2 8.928317456052147 5.8203667684384675 9.610869730452759
23 1 9.949359122710009 6.549040949088074 9.008913325819753
854 2 11.303893074268158 6.252212005470529 9.25831318297402