LMMPS data 
360 atoms 
2 atom types 
2.376929179746911 17.501070820252593 xlo xhi 
2.375589929982892 17.491210070016486 ylo yhi 
3.119471428483724 22.96832857151624 zlo zhi 

 Masses 

1 10.811 
2 15.9994 

 Atoms # full 

1 1 12.6679 6.42684 16.5884
2 1 13.0095 2.47733 22.6334
3 1 9.93307 16.1494 12.0116
4 1 8.00371 14.0997 17.316
5 1 8.02338 5.60828 20.3017
6 1 5.99904 4.92499 19.512
7 1 16.693 10.412 22.6914
8 1 5.75927 7.65257 3.91985
9 1 14.3945 6.6317 9.49358
10 1 15.3904 7.98009 11.2424
11 1 6.43565 7.34683 6.51866
12 1 3.02244 5.65761 5.20157
13 1 8.90329 16.3096 21.8717
14 1 17.0869 14.6964 4.00903
15 1 3.49088 7.84339 18.8202
16 1 7.15076 6.11341 10.0412
17 1 7.64105 2.38556 7.93214
18 1 15.5496 15.9598 7.27644
19 1 2.66358 16.8874 7.82877
20 1 4.61255 7.6659 13.3043
21 1 6.45562 15.9622 17.1235
22 1 2.64424 8.64869 12.1475
23 1 14.0266 7.85174 4.78953
24 1 11.9348 3.79429 20.7997
25 1 17.1416 15.2104 11.9786
26 1 17.4306 2.52883 12.4974
27 1 4.15297 17.2896 16.6884
28 1 6.72727 7.66857 12.0216
29 1 10.6759 6.12057 20.5413
30 1 15.3757 4.73505 20.5514
31 1 16.7611 5.90162 21.9945
32 1 6.25904 16.5367 21.5425
33 1 2.5192 13.6761 7.97661
34 1 2.6116 10.1344 6.50338
35 1 13.813 7.4726 18.3949
36 1 12.4778 17.2127 12.3889
37 1 13.6502 15.9454 10.948
38 1 16.1832 7.80531 3.45393
39 1 13.8307 7.19394 7.22525
40 1 3.55623 8.24327 5.21864
41 1 4.14253 15.962 19.9989
42 1 16.0675 14.0028 6.1516
43 1 5.17865 10.7775 16.9778
44 1 15.5181 9.09938 18.1998
45 1 15.376 14.5566 17.7032
46 1 12.2291 17.1686 18.8998
47 1 14.6892 15.85 15.8231
48 1 13.0564 14.1121 15.0713
49 1 3.75537 11.7504 18.9428
50 1 5.12835 11.3763 14.5937
51 1 9.36709 13.1777 3.39384
52 1 9.31484 15.9532 6.63767
53 1 13.1747 14.8519 19.0435
54 1 15.2236 11.9615 21.7564
55 1 13.5341 12.5749 20.035
56 1 13.3895 4.26692 13.437
57 1 16.9847 11.9194 14.33
58 1 17.0277 3.61024 21.9672
59 1 3.51389 9.75958 20.5201
60 1 15.3579 3.27586 16.2126
61 1 11.9779 6.17595 14.3288
62 1 3.37687 2.8941 9.99112
63 1 2.73536 14.0787 18.8217
64 1 14.4255 3.57446 18.3436
65 1 13.8674 13.3194 3.65122
66 1 12.8591 5.11043 6.50915
67 1 9.04962 5.98349 4.05827
68 1 4.65189 6.25456 7.78753
69 1 10.87 9.26461 11.7293
70 1 11.7723 11.4536 11.3945
71 1 16.0357 4.1785 5.68069
72 1 10.4578 8.00213 4.3993
73 1 6.33414 4.35653 8.57078
74 1 12.2493 14.1672 4.97461
75 1 10.9508 4.34343 10.1862
76 1 12.4759 3.64168 8.39786
77 1 8.63343 6.77708 8.1561
78 1 10.6627 5.23597 12.599
79 1 6.8224 4.07377 14.2223
80 1 5.15575 5.69916 14.7117
81 1 9.4724 14.334 21.2691
82 1 7.22946 13.3145 20.2683
83 1 3.946 13.5322 14.4811
84 1 14.3424 11.1303 17.4958
85 1 10.5564 5.37439 17.3817
86 1 9.43036 3.46079 16.4075
87 1 5.30361 4.82831 4.11263
88 1 8.12828 12.2135 18.6955
89 1 9.00523 4.5206 14.116
90 1 8.63337 16.3787 16.758
91 1 13.299 9.47483 11.5282
92 1 16.3027 10.4147 16.2637
93 1 7.09869 8.90753 20.1208
94 1 8.69812 10.8542 4.06133
95 1 5.76491 11.011 12.2993
96 1 5.02242 12.4355 10.6577
97 1 6.59457 10.7157 10.1662
98 1 4.63613 16.7548 6.41395
99 1 9.14525 17.3733 9.89852
100 1 4.72914 14.283 6.79119
101 1 12.1549 9.57407 3.98351
102 1 14.1806 17.0941 9.34106
103 1 16.4303 12.6708 12.061
104 1 9.10727 10.7827 6.39429
105 1 7.20784 10.2524 7.82968
106 1 4.8899 11.0605 6.58983
107 1 9.96421 6.48298 6.33323
108 1 8.61024 10.2709 14.5694
109 1 8.74467 8.52138 12.8833
110 1 9.15421 9.14516 16.7769
111 1 3.64224 11.2231 22.3934
112 1 5.59353 13.0474 22.3584
113 1 5.55586 8.87443 18.2285
114 1 12.4626 12.0858 16.4696
115 1 9.1073 10.0127 19.0018
116 1 12.7739 10.5266 21.4382
117 1 12.8112 13.3759 10.1566
118 1 16.8006 10.6737 10.5365
119 1 4.27859 16.2901 14.2305
120 1 6.61179 16.6344 13.1546
121 1 8.59053 6.78824 17.089
122 1 6.04068 5.82395 17.1571
123 1 12.0885 8.29069 20.1327
124 1 11.0246 13.0646 14.8871
125 1 6.90835 9.46866 22.4556
126 1 13.9572 3.69941 4.63819
127 1 6.95138 6.05142 22.4936
128 1 8.413 14.7582 12.649
129 1 8.70886 12.6013 13.7431
130 1 9.02301 15.371 4.16797
131 1 3.22808 14.1046 10.2847
132 1 15.7542 10.6652 8.06865
133 1 13.5428 11.7836 8.66827
134 1 11.0269 11.8146 7.64272
135 1 5.36318 12.7804 4.97703
136 1 10.662 14.1528 7.34477
137 1 3.74954 5.32041 19.5595
138 1 12.9725 15.416 22.9068
139 1 2.90456 4.9262 9.009
140 1 15.6341 4.74496 8.37607
141 1 5.42879 2.50914 3.97889
142 1 3.36675 3.01832 18.6555
143 1 17.3837 16.3436 3.27292
144 1 15.9071 3.93493 14.0212
145 2 13.585 6.9736 17.1642
146 2 12.7194 3.52699 21.8199
147 2 9.17524 16.4031 10.9125
148 2 9.11103 11.3427 19.1035
149 2 14.8401 16.9098 8.07985
150 2 4.27321 8.3375 17.6926
151 2 7.39819 4.71494 19.4468
152 2 6.38623 7.5233 5.30626
153 2 2.98394 10.9457 19.6684
154 2 7.7484 7.34335 7.24371
155 2 15.4702 4.50841 6.96558
156 2 14.1361 7.80951 8.50823
157 2 16.5138 9.10223 3.35078
158 2 6.12745 3.70656 3.82611
159 2 14.6758 6.91417 10.8278
160 2 14.6384 9.29089 11.6281
161 2 2.60271 16.8894 9.37518
162 2 16.4475 13.6518 4.77749
163 2 3.25521 6.41367 18.8987
164 2 17.2496 4.62501 5.24517
165 2 15.9398 9.25759 16.872
166 2 3.19923 15.0612 11.269
167 2 16.9561 16.0792 7.05645
168 2 3.65749 2.43026 6.92513
169 2 7.9455 17.4013 9.27545
170 2 11.5368 5.08142 20.7
171 2 5.83945 7.85015 12.9725
172 2 9.60844 3.90025 15.1106
173 2 16.735 7.82031 11.8051
174 2 3.0868 2.94603 17.3066
175 2 3.75429 8.55327 12.8696
176 2 5.16055 6.20355 16.093
177 2 12.8746 16.4407 21.9892
178 2 12.972 8.84934 4.61893
179 2 2.97175 15.6812 4.23279
180 2 4.95984 16.392 17.1665
181 2 3.84459 17.2163 15.2379
182 2 17.0563 16.3281 12.7242
183 2 5.6073 16.9809 22.6338
184 2 12.8204 7.32179 19.3633
185 2 16.9797 6.83707 22.9334
186 2 15.7533 5.87818 21.0728
187 2 11.7319 12.7311 10.9058
188 2 5.3533 15.7342 20.6347
189 2 16.6132 13.3202 7.18425
190 2 2.58352 9.16349 5.43706
191 2 16.4788 10.677 6.76122
192 2 3.68793 10.5039 7.2769
193 2 3.74286 13.4928 7.36124
194 2 4.2888 5.01217 5.02918
195 2 12.9018 14.9102 10.2947
196 2 11.1644 16.793 12.1897
197 2 13.6068 16.4204 12.1415
198 2 4.50648 8.32108 4.23122
199 2 3.04627 6.97054 5.57551
200 2 14.7272 7.51313 3.79012
201 2 5.03726 11.6947 18.1381
202 2 12.1611 15.8483 18.784
203 2 15.0749 7.83079 18.5429
204 2 14.4333 15.0427 18.6867
205 2 4.65077 10.7185 15.7377
206 2 8.36422 17.0087 6.90109
207 2 13.2239 2.71664 18.218
208 2 15.5718 15.4757 16.7263
209 2 13.2478 13.3404 16.2507
210 2 13.7104 15.279 14.9119
211 2 8.32637 12.7573 17.4331
212 2 16.5597 14.0035 18.0839
213 2 7.96794 7.49663 12.3867
214 2 16.5341 10.2372 9.12566
215 2 2.87918 12.7344 14.7319
216 2 9.99084 15.296 7.8695
217 2 10.2899 13.6585 22.3328
218 2 9.43986 11.8996 3.73967
219 2 14.6447 12.7879 20.709
220 2 12.745 13.4358 19.28
221 2 15.9362 10.8917 21.6585
222 2 5.49717 10.4831 13.5948
223 2 2.42551 4.87952 22.0313
224 2 15.769 3.36646 21.0757
225 2 3.40261 8.47098 20.126
226 2 2.58063 11.287 3.30239
227 2 3.48309 9.85573 21.8406
228 2 15.609 3.45021 17.5026
229 2 3.79619 17.4417 19.8004
230 2 11.0427 6.24869 13.2825
231 2 3.10511 2.88537 11.3905
232 2 13.2424 5.72334 14.0509
233 2 11.8528 6.90866 15.455
234 2 3.85474 4.08233 9.53228
235 2 3.04653 15.1338 19.6928
236 2 14.6583 17.2389 15.6011
237 2 4.11226 14.9167 14.3815
238 2 7.7299 5.197 14.2442
239 2 13.1808 13.1279 4.84273
240 2 8.88462 15.1108 16.8678
241 2 5.70464 5.24237 7.53989
242 2 5.18771 7.44308 7.52844
243 2 9.4635 5.55815 5.33257
244 2 12.8282 6.36674 7.03554
245 2 13.4214 4.90102 5.06059
246 2 6.66644 3.29238 7.7591
247 2 12.6476 3.82078 7.06584
248 2 10.6636 10.7289 11.7097
249 2 15.3126 3.25607 5.03497
250 2 12.9476 10.9827 11.5416
251 2 6.78328 4.8155 9.80073
252 2 6.3089 6.82807 10.8408
253 2 10.3478 7.76342 5.83216
254 2 11.7576 4.69239 9.00903
255 2 12.039 15.2005 4.02493
256 2 9.96186 3.34617 10.0386
257 2 10.9007 9.19041 4.25217
258 2 4.40019 6.45659 13.807
259 2 5.43015 4.46077 14.4152
260 2 9.25825 4.74623 12.6831
261 2 11.3148 4.90051 11.3928
262 2 6.91041 12.2979 19.3441
263 2 9.84307 14.931 12.701
264 2 6.25946 13.4807 21.2466
265 2 11.7893 14.0122 14.5377
266 2 8.73586 13.6167 20.4122
267 2 15.2057 11.3615 16.4507
268 2 11.9387 5.33042 17.3314
269 2 9.9492 4.17577 17.3313
270 2 14.9379 10.3007 18.578
271 2 12.9545 11.4374 17.4914
272 2 6.68445 14.5276 17.5065
273 2 9.26532 5.99976 20.6345
274 2 9.62928 15.6653 21.0325
275 2 9.36121 17.3882 16.893
276 2 12.0827 8.71136 11.4767
277 2 7.27348 16.7076 16.4197
278 2 6.67824 8.19245 22.9292
279 2 12.4935 10.5331 22.9046
280 2 8.61147 10.3069 5.27717
281 2 6.00868 13.3328 3.79877
282 2 4.29779 13.2657 10.0062
283 2 7.10902 9.78307 9.27029
284 2 5.99598 11.9147 9.91275
285 2 6.67083 10.3308 11.6952
286 2 4.77414 11.9786 11.7873
287 2 9.89248 6.23982 7.66031
288 2 7.54314 16.5569 21.2949
289 2 4.71991 11.7333 5.37651
290 2 5.00722 15.7194 7.25385
291 2 16.7208 4.55351 9.04083
292 2 9.81276 7.10889 3.30183
293 2 15.0476 14.8564 6.60335
294 2 12.8807 2.59515 9.18536
295 2 14.7903 16.2943 10.255
296 2 5.97591 10.2476 7.02877
297 2 5.89309 13.5961 6.15652
298 2 8.32138 10.6652 7.50725
299 2 7.87768 11.6729 14.4512
300 2 8.17176 8.1789 16.971
301 2 9.98441 8.47553 12.3246
302 2 9.30739 9.7196 15.5214
303 2 7.91859 9.69082 13.3935
304 2 3.56338 13.0788 18.8906
305 2 5.50064 4.90746 18.1205
306 2 6.15811 8.27554 19.3584
307 2 6.26173 9.82496 17.4496
308 2 4.23304 12.395 22.1138
309 2 11.1579 12.0528 15.9399
310 2 12.526 9.44363 20.5875
311 2 8.3438 8.89051 19.6353
312 2 12.6245 11.8055 20.7604
313 2 9.91649 9.42937 18.0377
314 2 16.9232 10.5283 14.9969
315 2 2.37038 10.0137 11.5541
316 2 13.9084 13.0687 9.46878
317 2 7.53265 15.5812 13.2764
318 2 16.1929 11.8906 13.2758
319 2 5.23848 16.6169 13.2323
320 2 11.0762 7.50391 20.6837
321 2 9.90195 6.46902 17.2265
322 2 7.40492 6.26297 17.6241
323 2 16.5158 12.0727 10.828
324 2 7.74833 10.2684 3.17884
325 2 6.27575 9.5708 21.1636
326 2 8.37158 6.52405 9.37971
327 2 13.1713 2.82805 4.06032
328 2 12.1429 11.5034 8.46156
329 2 5.64856 6.02934 3.44582
330 2 7.95535 5.66284 3.39126
331 2 6.99048 2.79169 13.7192
332 2 10.0109 12.722 13.9667
333 2 5.07752 12.7481 14.3663
334 2 7.99976 13.4578 12.8248
335 2 12.5203 3.24571 13.3194
336 2 9.6046 15.5022 5.35505
337 2 8.94613 16.4362 3.3588
338 2 8.42543 14.1662 3.80219
339 2 14.6804 7.64391 6.16886
340 2 14.4435 10.9685 8.19861
341 2 17.3234 13.9714 9.23663
342 2 16.2599 14.0468 12.1067
343 2 14.5106 12.1859 3.13691
344 2 11.4637 13.7865 6.13049
345 2 10.5159 12.9793 8.02113
346 2 10.3657 11.0312 6.7002
347 2 2.92195 4.27876 19.3537
348 2 4.97527 5.01785 20.4413
349 2 17.4428 2.58472 22.832
350 2 11.2865 2.85345 19.6976
351 2 13.8839 14.4795 22.7509
352 2 14.4996 4.35544 19.4729
353 2 7.13156 6.17364 21.2715
354 2 4.87137 17.0686 5.09235
355 2 3.56718 5.95687 8.44857
356 2 14.6197 5.39673 8.91407
357 2 14.7541 4.43827 13.2943
358 2 16.3429 15.4007 22.8716
359 2 16.855 3.4895 13.3649
360 2 16.0211 4.24574 15.4152
