5.540420000000000345e-01 1.640905000000000058e+00 4.389746999999999844e+00 6.078280000000000349e-01 1.524364999999999970e+00 8.658587000000000700e+00 6.145570000000000199e-01 1.685154999999999959e+00 2.950209999999999777e-01 7.010070000000000467e-01 9.325924999999999798e+00 4.468727000000000338e+00 5.046770000000000422e-01 6.184224999999999639e+00 4.449237000000000108e+00 5.511840000000000073e-01 9.521705000000000751e+00 8.661077000000000581e+00 5.341569999999999929e-01 6.142694999999999794e+00 8.608506999999999465e+00 6.110409999999999453e-01 9.454565000000000552e+00 2.773050000000000237e-01 6.322520000000000362e-01 6.245985000000000120e+00 3.029519999999999991e-01 6.390860000000000429e-01 1.400394499999999987e+01 4.429837000000000025e+00 6.306890000000000551e-01 1.411484500000000075e+01 8.586636999999999631e+00 5.896479999999999499e-01 1.395384499999999939e+01 3.259050000000000002e-01 3.034892999999999841e+00 2.717624999999999957e+00 1.778837000000000002e+00 3.941803000000000168e+00 1.368575000000000097e+00 3.828587000000000184e+00 2.948913000000000117e+00 2.283424999999999816e+00 4.476486999999999661e+00 3.085563000000000056e+00 2.636645000000000127e+00 5.941237000000000101e+00 1.442063000000000095e+00 2.652274999999999938e+00 3.852996999999999783e+00 4.025522999999999740e+00 1.668684999999999974e+00 2.378947000000000145e+00 5.275093000000000032e+00 1.610014999999999974e+00 4.417307000000000095e+00 3.939963000000000104e+00 1.332705000000000028e+00 8.027357000000000298e+00 2.848762999999999934e+00 2.313425000000000065e+00 8.590526999999999802e+00 3.058923000000000059e+00 2.710245000000000015e+00 1.007403700000000057e+01 1.497363000000000000e+00 2.561955000000000204e+00 8.008267000000000024e+00 4.045223000000000013e+00 1.614915000000000100e+00 6.565697000000000116e+00 5.247602999999999795e+00 1.615105000000000013e+00 8.671376999999999668e+00 3.925692999999999877e+00 1.376814999999999900e+00 1.215523699999999963e+01 2.892703000000000024e+00 2.319984999999999964e+00 3.228949999999999876e-01 1.525482999999999922e+00 2.704445000000000210e+00 1.211763700000000021e+01 4.001833000000000418e+00 1.642765000000000031e+00 1.069373700000000049e+01 5.233082999999999707e+00 1.743305000000000105e+00 3.166619999999999990e-01 3.019003000000000103e+00 5.235294999999999810e+00 1.814716999999999913e+00 3.191952999999999818e+00 1.053624499999999919e+01 1.737287000000000026e+00 3.916713000000000111e+00 9.127274999999999139e+00 3.870737000000000094e+00 3.464342999999999950e+00 7.832334999999999603e+00 4.087006999999999834e+00 2.932763000000000009e+00 1.011024500000000081e+01 4.453037000000000134e+00 3.858613000000000071e+00 6.512134999999999785e+00 3.856616999999999962e+00 2.862623000000000140e+00 5.487434999999999619e+00 4.480877000000000443e+00 3.038412999999999808e+00 5.152434999999999654e+00 5.930876999999999732e+00 3.067302999999999891e+00 1.037384499999999932e+01 5.925176999999999694e+00 1.602462999999999971e+00 1.043034500000000087e+01 3.830877000000000088e+00 1.502523000000000053e+00 5.170304999999999929e+00 3.861066999999999805e+00 4.008993000000000251e+00 6.130395000000000039e+00 2.435947000000000084e+00 4.036082999999999643e+00 9.489055000000000462e+00 2.358937000000000062e+00 5.229092999999999769e+00 9.488675000000000637e+00 4.491657000000000011e+00 5.221643000000000256e+00 6.135555000000000092e+00 4.466586999999999641e+00 3.868402999999999814e+00 9.068324999999999747e+00 8.034936999999999330e+00 3.497993000000000130e+00 7.827045000000000030e+00 8.337716999999999601e+00 2.922413000000000149e+00 1.013104500000000030e+01 8.612716999999999956e+00 3.906252999999999975e+00 6.549854999999999983e+00 7.934886999999999802e+00 2.860313000000000105e+00 5.557585000000000441e+00 8.533077000000000467e+00 2.961212999999999873e+00 5.294934999999999725e+00 1.002833700000000050e+01 3.150332999999999828e+00 1.046964499999999987e+01 1.003393699999999988e+01 1.569952999999999932e+00 1.050894500000000065e+01 8.012636999999999787e+00 1.449972999999999956e+00 5.158405000000000129e+00 7.936777000000000193e+00 3.986852999999999980e+00 6.172295000000000087e+00 6.535687000000000246e+00 4.048643000000000214e+00 9.421324999999999505e+00 6.591107000000000049e+00 5.139852999999999561e+00 9.487365000000000492e+00 8.670076999999999146e+00 5.219673000000000229e+00 6.188505000000000145e+00 8.540867000000000431e+00 3.895002999999999993e+00 9.108475000000000321e+00 1.211063700000000054e+01 3.412882999999999889e+00 7.840055000000000440e+00 1.238903700000000008e+01 3.018273000000000206e+00 1.017824500000000043e+01 3.791510000000000158e-01 3.854223000000000177e+00 6.595525000000000304e+00 1.207423700000000011e+01 2.940202999999999900e+00 5.612364999999999604e+00 3.304960000000000120e-01 1.621202999999999950e+00 1.048604500000000073e+01 1.212263699999999922e+01 1.569002999999999926e+00 5.236665000000000347e+00 1.211913700000000027e+01 3.959473000000000020e+00 6.292324999999999946e+00 1.064363700000000001e+01 4.037193000000000254e+00 9.496375000000000455e+00 1.072193700000000049e+01 5.324252999999999680e+00 9.327875000000000583e+00 3.336870000000000114e-01 5.224452999999999570e+00 6.238154999999999895e+00 3.826169999999999849e-01 3.081732999999999834e+00 1.305764500000000083e+01 1.824786999999999937e+00 3.557812999999999892e+00 2.572400000000000034e-02 4.163427000000000433e+00 3.908202999999999872e+00 1.440984500000000068e+01 3.761376999999999970e+00 2.900752999999999915e+00 1.334584500000000062e+01 4.521056999999999881e+00 3.055422999999999778e+00 1.299834500000000048e+01 5.922067000000000192e+00 1.534663000000000110e+00 1.296184500000000028e+01 3.877336999999999811e+00 3.998863000000000056e+00 1.408194499999999927e+01 2.352266999999999886e+00 5.212272999999999712e+00 1.403574500000000036e+01 4.453956999999999944e+00 3.521732999999999780e+00 3.005999999999999991e-02 8.361466999999999317e+00 3.913383000000000056e+00 1.434764499999999998e+01 8.017616999999999550e+00 2.996833000000000080e+00 1.334364500000000042e+01 8.598556999999999562e+00 3.090562999999999949e+00 1.300434500000000071e+01 1.011333699999999958e+01 1.579393000000000047e+00 1.308844500000000011e+01 8.002947000000000699e+00 3.977783000000000069e+00 1.398594499999999918e+01 6.590347000000000399e+00 5.328492999999999924e+00 1.396264500000000019e+01 8.647417000000000797e+00 3.544812999999999992e+00 8.612499999999999323e-02 5.788000000000000089e-02 3.953552999999999873e+00 1.439544500000000049e+01 1.209553700000000021e+01 2.947462999999999944e+00 1.353184500000000057e+01 3.123270000000000213e-01 1.662533000000000039e+00 1.304344500000000018e+01 1.210333699999999979e+01 4.084393000000000384e+00 1.396174500000000052e+01 1.068773700000000026e+01 5.325923000000000407e+00 1.407434499999999922e+01 2.367960000000000065e-01 7.654993000000000158e+00 2.669354999999999922e+00 1.757667000000000090e+00 8.464283000000000001e+00 1.254254999999999898e+00 3.818867000000000012e+00 7.539782999999999902e+00 2.358874999999999833e+00 4.451607000000000092e+00 7.715582999999999636e+00 2.692695000000000061e+00 5.975566999999999851e+00 6.230513000000000190e+00 2.596985000000000099e+00 3.944736999999999938e+00 8.592542999999999154e+00 1.502564999999999928e+00 2.390597000000000083e+00 9.802113000000000298e+00 1.568075000000000108e+00 4.424717000000000233e+00 8.470912999999999471e+00 1.236194999999999933e+00 7.971267000000000102e+00 7.585182999999999787e+00 2.321175000000000210e+00 8.537086999999999648e+00 7.749802999999999997e+00 2.608614999999999906e+00 1.010473700000000008e+01 6.182913000000000103e+00 2.675664999999999960e+00 8.017746999999999957e+00 8.601832999999999174e+00 1.550664999999999960e+00 6.480437000000000225e+00 9.798673000000000854e+00 1.597995000000000054e+00 8.565777000000000641e+00 8.510412999999999784e+00 1.306794999999999929e+00 1.213553699999999935e+01 7.540273000000000003e+00 2.330595000000000194e+00 3.433080000000000020e-01 6.200903000000000276e+00 2.583505000000000162e+00 1.208253700000000030e+01 8.590723000000000553e+00 1.586645000000000083e+00 1.061523700000000048e+01 9.914963000000000193e+00 1.561134999999999939e+00 3.503180000000000183e-01 7.711572999999999567e+00 5.123075000000000045e+00 1.735676999999999914e+00 7.678903000000000034e+00 1.035664500000000032e+01 1.762107000000000090e+00 8.458453000000000443e+00 9.042664999999999509e+00 3.843806999999999974e+00 7.914863000000000426e+00 7.788615000000000066e+00 4.074237000000000108e+00 7.572162999999999755e+00 1.011974499999999999e+01 4.439326999999999579e+00 8.445213000000000747e+00 6.611564999999999692e+00 3.727956999999999965e+00 7.588462999999999958e+00 5.540454999999999686e+00 4.451806999999999626e+00 7.733812999999999604e+00 5.301655000000000229e+00 5.810647000000000340e+00 7.639232999999999940e+00 1.035464499999999965e+01 5.974037000000000042e+00 6.126443000000000083e+00 1.052904499999999999e+01 3.796346999999999916e+00 6.103943000000000119e+00 5.136994999999999756e+00 3.869346999999999870e+00 8.581253000000000242e+00 6.272375000000000256e+00 2.318856999999999946e+00 8.610613000000000739e+00 9.483834999999999127e+00 2.455706999999999862e+00 9.855553000000000452e+00 9.365555000000000518e+00 4.505406999999999940e+00 9.830462999999999951e+00 6.272054999999999936e+00 4.414426999999999879e+00 8.474372999999999934e+00 9.083875000000000810e+00 8.109137000000000484e+00 8.011212999999999695e+00 7.771984999999999921e+00 8.390347000000000222e+00 7.582703000000000415e+00 1.010524500000000003e+01 8.654256999999999422e+00 8.556252999999999886e+00 6.493644999999999889e+00 8.062207000000000789e+00 7.582762999999999920e+00 5.437255000000000393e+00 8.558396999999999366e+00 7.658592999999999762e+00 5.124424999999999564e+00 1.002503699999999931e+01 7.750363000000000113e+00 1.044264500000000062e+01 1.008373699999999928e+01 6.241233000000000253e+00 1.042534500000000008e+01 8.013946999999999932e+00 6.192363000000000284e+00 5.173185000000000144e+00 7.895656999999999925e+00 8.664253000000000426e+00 6.244324999999999903e+00 6.551696999999999882e+00 8.603552999999999784e+00 9.335475000000000634e+00 6.615567000000000419e+00 9.868223000000000411e+00 9.410244999999999749e+00 8.627347000000000321e+00 9.865693000000000268e+00 6.219875000000000043e+00 8.598836999999999620e+00 8.481712999999999170e+00 9.111544999999999561e+00 1.216063699999999947e+01 8.095902999999999849e+00 7.791854999999999976e+00 1.237233699999999992e+01 7.546822999999999837e+00 1.008924500000000002e+01 3.596110000000000140e-01 8.431532999999999944e+00 6.439664999999999750e+00 1.205653700000000050e+01 7.523712999999999873e+00 5.420124999999999638e+00 2.792040000000000077e-01 6.133613000000000426e+00 1.041734499999999919e+01 1.213943699999999914e+01 6.156843000000000288e+00 5.136965000000000003e+00 1.210933700000000002e+01 8.562343000000000259e+00 6.133115000000000094e+00 1.067573699999999981e+01 8.665993000000000279e+00 9.461425000000000196e+00 1.071863699999999930e+01 9.835473000000000354e+00 9.478775000000000617e+00 4.198350000000000137e-01 9.806563000000000585e+00 6.103365000000000151e+00 3.211129999999999818e-01 7.717592999999999925e+00 1.297794500000000006e+01 1.829536999999999969e+00 7.946513000000000382e+00 1.561264500000000055e+01 4.128477000000000174e+00 8.420783000000000129e+00 1.434254499999999943e+01 3.805506999999999973e+00 7.499642999999999837e+00 1.332314500000000024e+01 4.440566999999999709e+00 7.698502999999999652e+00 1.295284499999999994e+01 5.873977000000000004e+00 6.157322999999999880e+00 1.302014499999999941e+01 3.824946999999999875e+00 8.703473000000000681e+00 1.392994500000000002e+01 2.411446999999999896e+00 9.880473000000000283e+00 1.400094499999999975e+01 4.456087000000000131e+00 8.044893000000000072e+00 1.557854500000000009e+01 8.270037000000000305e+00 8.525273000000000323e+00 1.434284500000000051e+01 8.009197000000000344e+00 7.570063000000000208e+00 1.329664499999999983e+01 8.643757000000000801e+00 7.769783000000000328e+00 1.297304500000000083e+01 1.008133699999999955e+01 6.299413000000000373e+00 1.301144500000000015e+01 7.983347000000000193e+00 8.604632999999999754e+00 1.398584499999999942e+01 6.541107000000000227e+00 9.875882999999999967e+00 1.403414500000000054e+01 8.598456999999999795e+00 8.062813000000000230e+00 1.561314499999999938e+01 1.235873699999999964e+01 8.588183000000000789e+00 1.435464499999999965e+01 1.214913699999999963e+01 7.618782999999999639e+00 1.331104500000000002e+01 4.407119999999999926e-01 6.273832999999999771e+00 1.297314500000000059e+01 1.214023700000000083e+01 8.706132999999999456e+00 1.394234499999999954e+01 1.068833700000000064e+01 9.960632999999999626e+00 1.409284500000000051e+01 3.085749999999999882e-01 1.226251300000000022e+01 2.577714999999999979e+00 1.760766999999999971e+00 1.311381300000000039e+01 1.245435000000000070e+00 3.852517000000000191e+00 1.206291300000000000e+01 2.143194999999999961e+00 4.492996999999999908e+00 1.225221299999999935e+01 2.639365000000000183e+00 5.947386999999999979e+00 1.077551300000000012e+01 2.645024999999999959e+00 3.882457000000000047e+00 1.319501299999999944e+01 1.568805000000000005e+00 2.363877000000000006e+00 1.306551299999999927e+01 1.252035000000000009e+00 8.042016999999999527e+00 1.210901299999999914e+01 2.241464999999999819e+00 8.573086999999999236e+00 1.223171299999999917e+01 2.584095000000000031e+00 1.004873699999999914e+01 1.075081300000000084e+01 2.633325000000000138e+00 7.952517000000000280e+00 1.326211299999999937e+01 1.668954999999999966e+00 6.622366999999999670e+00 1.315361300000000000e+01 1.349634999999999918e+00 1.216353699999999982e+01 1.216451299999999947e+01 2.423744999999999816e+00 2.818109999999999782e-01 1.073571300000000051e+01 2.637974999999999959e+00 1.209893699999999939e+01 1.325611299999999915e+01 1.679974999999999996e+00 1.072833699999999979e+01 1.226301300000000083e+01 5.136194999999999844e+00 1.783187000000000078e+00 1.237091299999999983e+01 1.038554500000000047e+01 1.811156999999999906e+00 1.317141299999999937e+01 9.075205000000000410e+00 3.835106999999999822e+00 1.260891299999999937e+01 7.877114999999999867e+00 4.145597000000000421e+00 1.224951300000000032e+01 1.013254500000000036e+01 4.449976999999999627e+00 1.304431300000000071e+01 6.559215000000000018e+00 3.808466999999999825e+00 1.212521300000000046e+01 5.558735000000000426e+00 4.434787000000000035e+00 1.226491299999999995e+01 5.143975000000000186e+00 5.992897000000000141e+00 1.232261300000000048e+01 1.038914499999999919e+01 5.918886999999999787e+00 1.087541300000000000e+01 1.036704499999999918e+01 3.895947000000000049e+00 1.080991299999999988e+01 5.195604999999999585e+00 3.851217000000000112e+00 1.315501300000000029e+01 6.244695000000000107e+00 2.382906999999999886e+00 1.330781299999999945e+01 9.436745000000000161e+00 2.413837000000000010e+00 1.305331299999999928e+01 9.104824999999999946e+00 8.016826999999999259e+00 1.259611300000000078e+01 7.784455000000000346e+00 8.312426999999999566e+00 1.208101300000000045e+01 1.005504499999999979e+01 8.614236999999999256e+00 1.305021299999999940e+01 6.476155000000000328e+00 8.022976999999999137e+00 1.205521300000000018e+01 5.502544999999999575e+00 8.629117000000000814e+00 1.214721300000000070e+01 5.181824999999999903e+00 1.000560699999999947e+01 1.222941299999999920e+01 1.044964500000000029e+01 1.008733699999999978e+01 1.075491300000000017e+01 1.047374499999999919e+01 8.096807000000000087e+00 1.072511300000000034e+01 5.197384999999999700e+00 7.968517000000000294e+00 1.324241300000000088e+01 6.139065000000000438e+00 6.576546999999999699e+00 1.325571300000000008e+01 9.392174999999999940e+00 6.530217000000000382e+00 1.311031299999999966e+01 9.052125000000000199e+00 1.213203700000000040e+01 1.269651299999999949e+01 7.746665000000000134e+00 1.238403699999999930e+01 1.213011299999999970e+01 9.959115000000000606e+00 4.464629999999999987e-01 1.309171300000000038e+01 6.471974999999999589e+00 1.212133700000000047e+01 1.213861299999999943e+01 5.442614999999999981e+00 2.820440000000000169e-01 1.082771299999999925e+01 1.041064500000000059e+01 1.216713700000000031e+01 1.075771300000000075e+01 5.198794999999999611e+00 1.214513700000000007e+01 1.322791299999999914e+01 6.215404999999999625e+00 1.067693700000000057e+01 1.320041299999999929e+01 9.441665000000000418e+00 1.067643699999999995e+01 1.229821300000000051e+01 1.298654499999999956e+01 1.757006999999999985e+00 1.275221299999999935e+01 1.560584500000000041e+01 4.044686999999999699e+00 1.319731299999999941e+01 1.432464500000000029e+01 3.822877000000000081e+00 1.221101299999999945e+01 1.328694499999999934e+01 4.418446999999999569e+00 1.232541299999999929e+01 1.302104500000000087e+01 5.900846999999999731e+00 1.078931299999999993e+01 1.293234499999999976e+01 3.862236999999999920e+00 1.322191300000000069e+01 1.402944500000000083e+01 2.367347000000000090e+00 1.264181300000000086e+01 1.561484500000000075e+01 8.173576999999999870e+00 1.308241300000000074e+01 1.434284500000000051e+01 7.989176999999999751e+00 1.212881299999999918e+01 1.332064500000000073e+01 8.547297000000000367e+00 1.233081299999999914e+01 1.301894500000000043e+01 1.000138699999999936e+01 1.077751300000000079e+01 1.299324499999999993e+01 7.952906999999999726e+00 1.326641300000000001e+01 1.402244499999999938e+01 6.477726999999999791e+00 1.283041300000000007e+01 4.542700000000000210e-02 1.688379999999999881e-01 1.318551300000000026e+01 1.438394500000000065e+01 1.215793700000000044e+01 1.213571300000000086e+01 1.336814500000000017e+01 3.839239999999999875e-01 1.092911299999999919e+01 1.295584500000000006e+01 1.205443700000000007e+01 1.327031299999999980e+01 1.403554500000000083e+01 1.069323699999999988e+01 7.646500000000000519e-01 1.288045000000000107e+00 1.762116999999999933e+00 1.699013000000000106e+00 2.356704999999999828e+00 2.327236999999999778e+00 7.004879999999999995e-01 1.354815000000000103e+00 5.897066999999999837e+00 1.706312999999999969e+00 2.304965000000000153e+00 6.562236999999999654e+00 7.244530000000000136e-01 1.307944999999999913e+00 1.011773699999999998e+01 1.683723000000000081e+00 2.353134999999999977e+00 1.064373699999999978e+01 6.687389999999999723e-01 6.543434999999999668e+00 1.772786999999999891e+00 1.162363000000000035e+00 7.814045000000000130e+00 1.947246999999999950e+00 1.591612999999999944e+00 5.533705000000000318e+00 2.469497000000000053e+00 7.736469999999999736e-01 9.088924999999999699e+00 1.766887000000000096e+00 1.747413000000000105e+00 1.010364500000000021e+01 2.412676999999999961e+00 7.303159999999999652e-01 6.498644999999999783e+00 5.894097000000000364e+00 1.171392999999999907e+00 7.742494999999999905e+00 6.254636999999999780e+00 1.665353000000000083e+00 5.520694999999999908e+00 6.501656999999999798e+00 8.098579999999999668e-01 9.016914999999999125e+00 5.914056999999999675e+00 1.712272999999999934e+00 1.006884499999999960e+01 6.597096999999999767e+00 7.267029999999999879e-01 6.536805000000000199e+00 1.003103699999999954e+01 1.085963000000000012e+00 7.840535000000000032e+00 1.025703700000000040e+01 1.651723000000000052e+00 5.520785000000000053e+00 1.061203700000000083e+01 6.850549999999999695e-01 9.180044999999999789e+00 1.008413700000000013e+01 1.746572999999999931e+00 1.007244500000000009e+01 1.072513700000000014e+01 7.118499999999999828e-01 1.436754499999999979e+01 1.820016999999999996e+00 1.240922999999999998e+00 2.936899999999999927e-02 1.997597000000000067e+00 1.737773000000000012e+00 1.329474500000000070e+01 2.422556999999999849e+00 7.798699999999999521e-01 1.437524499999999961e+01 5.920526999999999873e+00 1.094753000000000087e+00 7.836999999999999522e-02 6.107427000000000383e+00 1.670033000000000101e+00 1.342714499999999944e+01 6.594606999999999886e+00 6.873820000000000485e-01 1.441574499999999937e+01 1.002193699999999943e+01 1.124683000000000099e+00 4.544700000000000129e-02 1.044853699999999996e+01 1.725462999999999969e+00 1.336384499999999953e+01 1.066323700000000052e+01 5.350952999999999626e+00 1.357434999999999947e+00 1.810656999999999961e+00 6.327352999999999561e+00 2.390155000000000030e+00 2.362757000000000218e+00 5.428543000000000340e+00 1.277605000000000102e+00 5.947246999999999950e+00 6.265432999999999808e+00 2.306255000000000166e+00 6.536516999999999911e+00 5.406333000000000055e+00 1.229465000000000030e+00 1.007993699999999926e+01 6.414873000000000047e+00 2.234745000000000203e+00 1.066193700000000000e+01 5.383912999999999727e+00 6.456554999999999822e+00 1.811746999999999996e+00 5.746972999999999665e+00 7.736435000000000173e+00 2.256397000000000208e+00 6.304253000000000107e+00 5.388754999999999740e+00 2.402446999999999999e+00 5.388493000000000421e+00 9.060354999999999492e+00 1.829676999999999998e+00 6.356173000000000073e+00 1.005724499999999999e+01 2.344006999999999952e+00 5.341903000000000290e+00 6.560534999999999783e+00 5.927166999999999852e+00 5.730983000000000160e+00 7.819844999999999935e+00 6.181587000000000387e+00 6.269643000000000299e+00 5.459665000000000212e+00 6.406047000000000047e+00 5.408752999999999922e+00 9.113094999999999501e+00 5.903736999999999568e+00 6.276963000000000292e+00 1.006084500000000048e+01 6.575737000000000165e+00 5.371972999999999665e+00 6.548675000000000246e+00 9.988117000000000800e+00 5.814083000000000112e+00 7.845824999999999605e+00 1.029603700000000011e+01 6.231093000000000437e+00 5.493195000000000050e+00 1.068153700000000050e+01 5.359492999999999618e+00 9.191024999999999778e+00 1.008653699999999986e+01 6.386982999999999855e+00 1.016324499999999986e+01 1.068623700000000021e+01 5.430922999999999945e+00 1.443194500000000069e+01 1.759976999999999903e+00 5.811372999999999678e+00 9.611599999999999311e-02 2.033116999999999841e+00 6.315052999999999805e+00 1.342514500000000055e+01 2.438467000000000162e+00 5.387332999999999927e+00 1.431874499999999983e+01 5.900286999999999615e+00 5.878302999999999834e+00 1.560534499999999980e+01 6.123796999999999713e+00 6.340193000000000190e+00 1.333404499999999970e+01 6.554897000000000418e+00 5.486513000000000417e+00 1.432854500000000009e+01 1.000760700000000014e+01 5.908572999999999631e+00 1.559694499999999984e+01 1.032443699999999964e+01 6.481093000000000437e+00 1.328984499999999969e+01 1.073953700000000033e+01 1.000352299999999950e+01 1.202525000000000066e+00 1.861126999999999976e+00 1.086171299999999995e+01 2.290995000000000115e+00 2.385406999999999833e+00 9.983733000000000857e+00 1.257565000000000044e+00 5.858467000000000091e+00 1.093421299999999974e+01 2.337505000000000166e+00 6.532027000000000250e+00 9.980463000000000306e+00 1.267165000000000097e+00 1.003443700000000049e+01 1.085361299999999929e+01 2.318624999999999936e+00 1.061963700000000088e+01 9.947143000000000512e+00 6.525545000000000151e+00 1.755147000000000013e+00 1.032601299999999966e+01 7.761625000000000441e+00 2.071016999999999886e+00 1.084701300000000046e+01 5.435875000000000234e+00 2.346906999999999854e+00 9.904092999999999591e+00 9.149694999999999467e+00 1.823717000000000033e+00 1.097781299999999938e+01 9.997344999999999260e+00 2.493876999999999899e+00 9.940333000000000752e+00 6.534634999999999749e+00 5.840386999999999773e+00 1.036181299999999972e+01 7.831825000000000259e+00 6.299877000000000393e+00 1.090961300000000023e+01 5.557565000000000310e+00 6.588296999999999848e+00 9.989962999999999482e+00 9.131394999999999484e+00 5.961367000000000083e+00 1.091241300000000081e+01 1.017384500000000003e+01 6.549957000000000029e+00 9.904253000000000640e+00 6.552324999999999733e+00 1.008833699999999922e+01 1.037071300000000029e+01 7.799305000000000376e+00 1.040593699999999977e+01 1.085721299999999978e+01 5.507035000000000124e+00 1.069993700000000025e+01 9.972143000000000868e+00 9.112565000000000026e+00 1.007863700000000051e+01 1.086761300000000041e+01 1.016544500000000006e+01 1.070323699999999967e+01 1.007251300000000072e+01 1.429114500000000021e+01 1.769087000000000076e+00 1.042131299999999960e+01 1.557984500000000061e+01 2.112407000000000146e+00 1.100101300000000037e+01 1.333744500000000066e+01 2.403576999999999853e+00 1.000411300000000026e+01 1.431174500000000016e+01 5.912996999999999836e+00 1.043691300000000055e+01 1.559634499999999946e+01 6.172937000000000118e+00 1.093301300000000076e+01 1.331324500000000022e+01 6.513467000000000340e+00 1.004931299999999972e+01 1.435524500000000003e+01 1.004993699999999990e+01 1.049351300000000009e+01 2.292999999999999899e-03 1.036123699999999914e+01 1.097561299999999918e+01 1.333314500000000002e+01 1.064833699999999972e+01 1.118263000000000007e+00 3.918134999999999923e+00 4.175806999999999825e+00 1.024362999999999913e+00 3.882775000000000087e+00 8.267507000000000161e+00 1.130343000000000098e+00 3.992964999999999876e+00 4.362699999999999911e-02 1.139132999999999951e+00 1.167814500000000066e+01 4.169496999999999787e+00 1.185832999999999915e+00 1.182014500000000012e+01 8.319027000000000172e+00 1.243322999999999956e+00 1.176064500000000024e+01 1.986200000000000118e-02 5.755573000000000050e+00 3.859255000000000102e+00 4.245317000000000007e+00 5.861812999999999718e+00 3.948545000000000194e+00 8.322336999999999207e+00 5.752082999999999835e+00 3.860994999999999955e+00 3.385400000000000215e-02 5.748992999999999576e+00 1.176914499999999997e+01 4.147226999999999997e+00 5.782153000000000098e+00 1.172664499999999954e+01 8.174746999999999986e+00 5.716323000000000043e+00 1.175684500000000021e+01 8.165100000000000136e-02 1.038701299999999961e+01 3.945195000000000007e+00 4.265417000000000236e+00 1.037341299999999933e+01 3.894534999999999858e+00 8.264946999999999377e+00 1.029771299999999989e+01 3.875805000000000167e+00 1.227063700000000068e+01 1.044301300000000055e+01 1.169494500000000059e+01 4.122126999999999875e+00 1.033971299999999971e+01 1.174054499999999912e+01 8.313297000000000381e+00 1.048351300000000030e+01 1.169124500000000033e+01 1.598569999999999991e-01 3.425193000000000154e+00 3.961205000000000087e+00 2.034696999999999978e+00 3.447922999999999849e+00 3.914175000000000182e+00 6.255287000000000042e+00 3.535092999999999819e+00 3.993615000000000137e+00 1.032993699999999926e+01 3.554733000000000143e+00 1.183994500000000016e+01 2.104597000000000051e+00 3.421993000000000062e+00 1.169204500000000024e+01 6.214046999999999876e+00 3.534302999999999972e+00 1.171054499999999976e+01 1.029723700000000086e+01 8.240192999999999657e+00 3.881845000000000212e+00 1.986887000000000070e+00 8.151462999999999681e+00 3.928444999999999965e+00 6.154956999999999567e+00 8.059492999999999796e+00 3.873815000000000008e+00 1.032213699999999967e+01 8.114762999999999948e+00 1.168064500000000017e+01 2.136337000000000153e+00 8.096152999999999267e+00 1.164534500000000072e+01 6.215357000000000021e+00 8.256973000000000340e+00 1.170674499999999973e+01 1.040443699999999971e+01 1.269211300000000087e+01 3.876794999999999991e+00 2.174277000000000015e+00 1.275121299999999991e+01 3.901604999999999990e+00 6.119257000000000168e+00 1.259311300000000067e+01 3.921015000000000139e+00 1.029153699999999994e+01 1.272011299999999956e+01 1.170914499999999947e+01 1.988887000000000072e+00 1.273741300000000010e+01 1.172604499999999916e+01 6.221687000000000189e+00 1.271501300000000079e+01 1.174354499999999923e+01 1.033403700000000036e+01