-1.058588861979758949e+05
-1.058591029458906851e+05
-1.058585968746876024e+05
-1.058610072519392415e+05
-1.058591869372033252e+05
-1.058591635929230542e+05
-1.058593212159429240e+05
-1.058595913994860894e+05
-1.058590723859604768e+05
-1.058604763738510228e+05
-1.058608205417396239e+05
-1.058592037183948851e+05
-1.058605286963861727e+05
-1.058599800327499543e+05
-1.058597788300743414e+05
-1.058598917905300914e+05
-1.058589058312094858e+05
-1.058584434359651932e+05
-1.058589935403242271e+05
-1.058600206205056893e+05
-1.058590562469536671e+05
-1.058591152347582538e+05
-1.058598791629151820e+05
-1.058595974589183897e+05
-1.058594096124103671e+05
-1.058586218833058811e+05
-1.058595109610725776e+05
-1.058583880090804305e+05
-1.058601380999818502e+05
-1.058594566971520107e+05
-1.058577576566649368e+05
-1.058579716397497687e+05
-1.058586412228861154e+05
-1.058595305364681262e+05
-1.058596680883583176e+05
-1.058598576161504607e+05
