6.255993302549571755e-01 2.721358654982122260e-01 1.555989595738292763e+00 -9.818426719794726143e-01 3.805922048952303238e-01 -8.807360886868457195e-01 7.549890791009128410e-02 -8.224959692838337486e-03 9.421556345219188611e-01 -6.399070063095702032e-01 2.380106388588980326e-01 -5.075075238542252620e-01 9.984797676907631869e-01 4.248686618750460164e-01 4.953451764547245895e-01 -1.520920774160788025e-01 3.325922760094539021e-01 -9.435394023577069467e-01 -2.556041850252481207e-01 4.201964528241470820e-01 -5.225711043007401635e-01 4.435261306174813623e-01 -1.125320524651917363e-02 1.377230548349666073e+00 -8.758983005786729059e-01 -5.310084371322557617e-01 2.848648840813018945e-01 1.352199828564214779e-01 1.339195187699452061e-01 4.474213522288131295e-01 -9.396421238636759599e-01 1.325239238586377322e-01 4.953575177509189076e-01 8.027036155121958227e-01 6.255854462967386231e-01 1.009807534935122764e+00 -3.652211204852069959e-01 -2.030570027125401911e+00 -1.078006051925600062e+00 -1.038311815378599734e+00 -1.540659134761575677e+00 6.723810703622196128e-01 -9.828310041163675903e-01 8.108226457460327996e-01 1.641819197004377728e-01 -4.441539940613672965e-01 -1.106612148062680268e+00 -2.853065996409235305e-01 2.256833808890008619e+00 -2.420405862870176616e-01 -1.303398229646482553e+00 -4.139867239557059597e-01 3.469128075809359002e-01 2.522607221979374925e-01 1.401544444514497278e-01 -4.807983877863467592e-01 1.281064083079489935e+00 -1.497708852901974419e+00 -9.475678071238022859e-01 6.475889489698584411e-02 1.827030685419933853e+00 6.221247411555819173e-02 9.042066629450651316e-01 -1.154939635518281021e-02 -2.787189185765314159e-01 -5.741063003255140185e-01 5.195366880989621405e-01 1.284786526544100971e+00 2.058255668254656001e-01 1.417089335512590753e-01 -1.298684882941602559e-01 -2.688196563666639949e-01 2.520627472381536394e-01 1.157445432866402335e+00 -1.349831328136255282e+00 -1.028467574780931981e+00 -5.813002475654519552e-01 -6.849059433374281580e-01 1.002699462547870374e-01 9.416840941631610118e-01 2.444579376790797232e-01 1.041607455683157601e+00 -3.232236895359420492e-01 -2.325259611418730721e-01 1.074695499221474337e+00 -2.456740695748948697e-02 -7.136632203528887608e-01 -4.529769923989553915e-01 -2.075368932310777126e+00 9.428549746395967768e-01 -2.255551856747823325e-01 5.099942950373803630e-01 -7.198354111120722765e-01 -1.082383612529859818e+00 1.024132180272002840e-01 1.742945834903320446e+00 -9.627733124765518458e-01 -3.565220493302369009e-01 -6.997607501899892890e-01 1.626593122824638027e-01 -4.911347375697630024e-01 3.990758670495957450e-01 8.083307323561300661e-01 -2.016125568371302246e-01 6.463183096825184659e-01 1.633576239587922890e-02 5.636372816080088138e-02 -7.661888053972566379e-03 7.285812763484457166e-01 7.828660103211787513e-01 -2.751327435907325314e-01 -7.892644581772578771e-01 1.050575978471703475e+00 -2.617825464325287954e-01 -1.779306378815830592e-01 1.220357761320313150e+00 9.395207677844319427e-01 -2.030035237623648292e-01 -6.083384848651789412e-01 1.832029424599307676e-01 6.664711321471654404e-02 1.471964394819951893e+00 3.309051179755556626e-01 -4.444167608261713753e-01 6.511113605919869318e-01 6.839906305363496752e-02 1.146560409623013532e+00 -5.766321522799511268e-01 1.198172738749001764e+00 1.242089755477158025e-01 3.597693528913668837e-02 -1.024084871969924704e+00 -1.272536761629890822e+00 1.358463036382831390e+00 4.864013362585671921e-03 8.533852052168626467e-02 1.811709480415362616e+00 -7.311549508256359742e-01 -6.429671335450862779e-01 -1.692592832209827369e+00 -2.127845152170368126e-01 -3.300463694487009714e-01 -2.276295518767773030e-01 1.636985522661603409e-01 -1.625315798668526046e+00 -3.789610969148812791e-01 1.135308232817843876e+00 2.541535685017410132e-02 -2.961350586100883198e-01 1.131551336568023647e+00 1.876935801905708523e+00 -1.438389898523309229e+00 -7.961282757439980262e-01 -2.197122504136498566e+00 -9.948956495876629669e-01 -6.341060828775658964e-02 -3.338783419170368028e-01 -2.003048936612072395e-01 4.065351521577115768e-01 9.206056744839402617e-01 -1.213406526238863664e-01 6.726700623814365620e-01 5.279678502823804687e-01 1.022723215623151605e+00 -8.270334525179444674e-01 -7.904425377431405497e-01 7.897555389216569244e-02 -1.412696862508762807e+00 2.728443587439010276e+00 7.687748211706412205e-01 -1.897006349062393127e-01 8.457274309282882818e-01 3.438130853534629439e-02 2.279931058938349520e-01 -1.056769766499227048e-01 -4.224153150357505826e-01 1.505877762541263598e+00 1.198905503210539666e-02 1.834969738417603802e+00 2.302963002960996264e-01 -4.240870464494058689e-01 -4.203604892193965603e-01 -2.067207221760934743e+00 4.789579919913690143e-01 -7.492195231300691205e-01 9.798485242027406006e-01 -1.474455793989179808e+00 -1.119903724063960881e+00 6.086367328565416013e-02 -4.579114539939835304e-01 -6.242423018942570012e-01 -3.152172736298781020e-04 3.016336202853318604e-01 6.906415607437376147e-01 6.697261490184168442e-02 2.849620717888321497e-01 -7.738198402107435148e-02 -7.490472592040234856e-01 9.553973311177474947e-01 -5.508784382257827517e-01 -6.317740921175145630e-01 -1.220015804571595863e+00 6.088064256792134754e-02 -6.169249416923758833e-01 5.366427530656368017e-01 -6.550333216784063328e-01 -1.513105134125061202e+00 -6.028301529971148431e-01 1.681168905699286897e+00 -1.273234044864869796e+00 -6.794706308051806642e-01 1.147032978423121019e+00 -5.745022502450817248e-01 -3.753281278476788829e-01 -1.506975109461208273e-01 2.098860075395987401e+00 1.978566890286593757e-02 1.883549194003838745e-01 -1.432455277715866560e+00 -5.796963932808653353e-02 -2.312290966001201709e-01 4.390277281546524080e-01 1.431321935348688124e+00 1.356370158236545054e-01 -6.883460796515945834e-02 1.053420647244493802e+00 9.059272453228230937e-01 3.319690405516408371e-01 5.358981615285794975e-01 -9.276638674657406991e-01 -2.391851188800573069e-01 2.783733622830905086e-01 -6.741834138272648769e-01 -4.389192275922773612e-01 -3.232900240029865091e-01 4.879326854280122694e-01 3.382368763563301517e-01 -1.084989168688885286e+00 -2.278563231943479123e-02 8.559784200796937137e-01 2.799211665141279615e-02 7.552796137821541356e-01 -1.528063299333249692e+00 8.940122380678834357e-01 -4.632254104469871181e-02 2.741788642390466380e-01 1.982432801319463644e+00 9.132554041588741844e-01 -1.055468273971401194e+00 -7.637642549157479532e-01 5.861030686677408674e-01 -1.263528129628713303e+00 3.551146273434098721e-01 -1.207586576641892950e+00 -6.062810879454511026e-01 4.521285282855959375e-02 1.422526704927537411e+00 3.479242796481952227e-01 -9.543323801003127382e-01 -2.585903673277333947e+00 1.298866917060468751e+00 -8.149981176251104298e-01 6.115888737503574202e-01 2.662171855316870506e-01 5.025118699989000737e-01 8.907227684114228383e-01 -5.095037285136561067e-01 1.884233107501273874e-01 3.308526674667297551e-01 2.301857428510254877e+00 2.506897780365356931e-01 -1.533483185245254399e+00 6.510604527451853141e-01 -8.906703179025970973e-01 -1.535272673193430470e-01 4.539118455856749890e-01 1.326902742469236562e+00 -1.122697484989949812e+00 2.852459216013015220e-01 -6.720195732278609890e-01 -1.717919228883267424e+00 -1.478536649264101221e+00 -4.638450463600767848e-01 9.576768713689731705e-01 -1.915486925892709857e+00 -6.319206450098220629e-02 9.131289058728824237e-01 -7.433856895748799376e-01 4.398967610950023088e-01 5.310392903727414460e-01 4.154609946302522117e-01 -2.693770715781073077e-01 5.341179295525491089e-01 -4.140258047269879116e-01 -6.219257377544484822e-01 -2.994209287218255189e-01 6.906837268390682016e-01 -1.830580350737824658e+00 -1.164355530293871066e+00 -2.458157887928596352e+00 1.021697345376998856e+00 -1.701157177548009436e+00 -2.639525576800297313e-01 2.373344386715843524e-01 3.507802612758303407e-01 4.937274382119193339e-01 8.190182948604096680e-01 -4.358138489373820090e-01 1.867001572689956923e-01 3.282424833216314453e-02 -1.273251528367811636e+00 4.806646904109082574e-01 1.045915082275649333e+00 -1.217884359874702005e+00 -1.501543396473684178e+00 1.974612533297664396e-01 1.446799463438387612e+00 5.640157480246345001e-01 2.101699087741355054e+00 -1.229741260193393471e+00 1.578932065363530368e+00 -1.641955979703864976e+00 -1.188333126137407075e-01 -1.070785365210574547e+00 -4.629883547159212576e-01 5.246074181728026531e-01 6.695045199075938536e-01 4.363008159163828115e-02 2.902099508851286203e+00 1.254020703573015316e+00 -3.207986248337585389e-01 1.552228585723074428e+00 1.305896313684482557e+00 4.921487807403960857e-01 1.961667542031173994e+00 3.518123021700802489e-01 -1.170933441165442623e+00 -9.295361449425537659e-02 1.166257118349145472e+00 3.391393336405396641e-01 -2.255055119576002021e+00 1.317743958031027951e+00 -7.569842553189942702e-01 9.448084989830225766e-02 -2.203000046449042681e+00 -3.019565508690831845e-01 -2.204474317123588989e+00 2.484516839716960579e+00 1.037587278447858363e+00 2.899140168868024059e-01 -1.106812694125838048e+00 1.941797540937646893e+00 -1.816247992090823438e+00 6.103537156895761928e-01 1.240256558771627216e+00 -7.845876211402861289e-01 -4.618730100723597576e-03 -9.964090010334913927e-01 -1.351461407675254911e+00 -2.048588319569106531e-01 1.336279556473544350e+00 -1.759871408413153260e+00 -9.177779749934170672e-01 -1.185412352704751648e-01 1.357989953362049029e-01 -2.625369081624064349e-01 1.814242531459246410e-01 -5.849517285769458702e-02 -2.247997955035551387e-01 4.728855600430896811e-01 -1.728829448939719571e+00 -1.758144655387298139e+00 8.894994374261611103e-01 2.400587798064800493e-01 -6.196359130897277417e-04 -9.618122340354192668e-01 3.629940307428072832e-01 -3.335821508083731124e-01 -1.813814185637168563e+00 1.221293128727707566e+00 -1.217746034513190745e+00 -1.477407420662320975e-02 8.317097753342417299e-01 5.763333900679136479e-02 -1.147582680324443105e+00 5.716292993351793639e-01 -1.936832740322807500e-01 1.668234713066966621e-02 1.096027429693353428e+00 1.086094743139626173e+00 -2.003951908116956560e+00 9.503080890996153940e-01 2.569961803918323073e-01 5.994496662812212051e-01 1.146223595081043767e+00 1.358982399264342320e-02 -1.535887681120447379e+00 -6.833997909810466398e-01 -9.662268185282617550e-01 -8.998373298716015878e-01 1.184027042206939440e+00 -7.549746809220195809e-01 -1.003213169001958782e+00 -4.005480808414429439e-01 8.861811714119137706e-01 -9.057853204165883243e-01 4.497168333209562441e-01 1.103052198331294198e+00 4.404618896165670705e-01 -1.075025114673997528e+00 -1.429806012799486048e-01 -1.874288079651352246e-01 -6.838178523896292216e-01 1.748720533080911910e-01 -1.422005285163327470e-01 1.274999878662006758e-01 -1.048467159484499645e+00 3.163999811818335450e-01 1.648077776836921471e+00 2.033683633311093697e+00 1.197532534008921706e-01 8.198755007252400695e-01 1.363260715278372393e-01 1.087522219732769191e+00 1.542265045928861378e+00 7.263202480415116291e-01 -8.539009685536501637e-01 2.658412902184351112e-01 5.291119912837287664e-01 4.363033870197566277e-01 4.699478173281671500e-01 -1.600057279124154741e+00 -3.687795275545687201e-01 -6.436443621737495402e-01 -4.114259049953848946e-01 -8.216922423691787047e-01 -5.398818290959704891e-01 -1.295383071988947643e+00 -6.632125157311906660e-01 1.327122314697360306e+00 1.021139415944880696e-01 4.263187641778785064e-01 -6.110134608152973934e-01 7.914267561146375030e-02 8.705956569805141099e-01 -1.815852042171255398e-01 -1.628937969101558192e-01 1.243243152450652200e+00 2.194369880864490974e-01 7.822998533582644631e-01 8.805566256713531770e-01 -3.242490455614199796e-01 4.586894698749003907e-01 -3.189356033290912662e-01 -1.350631455506186851e-01 1.088743493835331755e+00 1.365410157698883006e-02 1.724264712009846212e+00 5.039743135979268818e-01 -6.288584608916067964e-01 7.031114121067467693e-01 2.192672952637772232e-01 -1.106955133252747414e+00 5.881090435199922556e-02 1.600218744416030403e-01 -2.104360693953929995e-01 1.272131555738177378e+00 3.689193955781043810e-01 -3.575746590514772838e-01 -1.043784151799430404e+00 -6.091818067717906793e-01 1.401709509351096283e+00 8.744373996416704431e-02 -5.130996736922756041e-01 -1.660212870540659497e-02 -4.164071606718166008e-01 6.426493451680826974e-01 -1.565524789710427855e+00 -7.876575185686227609e-01 2.731884752194526644e-01 1.142041952553868756e+00 -1.901793743544439447e-02 -5.461851461272184682e-01 -1.858393518594420035e-02 1.794229062797460250e-01 -3.136730689435640040e-01 3.079112262828417323e-01 1.062386598929665915e+00 2.176891520129287938e-01 -2.588977684471068796e-01 -3.483572534563458833e-01 2.469308249040162717e-01 -4.169018409609389075e-01 1.329718100663564995e-01 -2.358113684550030342e+00 -2.637993199189502258e-01 8.863791463716975683e-01 7.582965464809902079e-01 9.177152400710959501e-01 1.538363653669432729e+00 8.482584250894728561e-02 -9.363691092688078976e-01 -8.385406827777968086e-01 -5.181678326627423559e-01 -9.846348902434370887e-02 1.173869641218340920e+00 5.896357647033644289e-01 -1.138034116614764057e+00 6.278798989475323777e-01 -1.290796737790733895e+00 6.161237858810947321e-01 1.430959923993655014e+00 5.690947056292712247e-01 5.872333257108705018e-01 -1.297337110553047790e+00 -3.993684586135360370e-01 -2.510661875704623958e-01 -3.769942028339118290e-01 -5.717521980764478373e-01 8.899884612878609103e-01 2.552123488710785759e-01 -3.980849638093268972e-01 1.048079951316402747e+00 9.319637807481110370e-01 -9.686631960852901679e-01 1.999351689960524592e-01 3.764902665726438391e-01 1.491981463026461174e+00 7.834100557950782195e-02 1.639789568001087439e+00 -2.204309766507664414e-02 2.460597350809673178e-01 -7.763132962626705380e-01 4.630325776939508420e-01 -2.661379955477735648e-01 4.798943878401129570e-01 -2.092761932413970349e+00 -7.339255718212602808e-01 -2.730933443946214068e-01 -2.994306989146460624e-02 1.573283865471930554e-01 -1.114710095248852006e+00 6.569241110995107658e-01 1.083229505539845539e+00 -1.032421931769861523e+00 2.020666136929462064e-01 -9.239522226352995249e-01 -4.043024059878894683e-01 -1.050939532488761374e+00 -5.856783223903863078e-01 7.253596838210539348e-03 -3.621090569615397631e-02 -1.369303322427515734e+00 7.821419876111120884e-01 2.629441709368189328e-01 -8.294688016336233816e-02 5.838050164722238256e-01 9.789789770417159920e-01 5.740343094310471628e-01 -2.019271056238829409e+00 -3.448770079295481739e-01 -4.838086356164108537e-01 1.114516748275141134e-01 6.235069663293455466e-01 -5.232272498817380768e-01 5.715686212955572998e-01 1.413310327773755537e+00 -5.232128517028447057e-01 -3.470490760597481072e-01 6.900322092441432131e-01 -3.563806386446769642e-02 2.181773016994815073e+00 -1.293227973141014786e+00 1.446888423615121377e-01 1.770178961838782650e+00 6.927555219376894113e-01 -7.718755718394636478e-01 6.405513248150486172e-01 -3.087787165611673434e-01 -3.386199707590287766e-01 5.400345526363751203e-01 -3.232380877148354203e-01 3.992023653355875057e-01 -9.531594427411778370e-02 -1.166315739506068594e+00 6.382234478203953065e-01 -4.401446154602381977e-01 -8.796875927310032761e-02 5.249210927844082386e-01 -1.498343915435307094e+00 -4.723595122928068712e-01 9.625650531032725610e-01 5.336057657604849069e-01 -3.287186516664622471e-01 2.099629863746107772e-01 1.460938989332353000e+00 1.318782169573375018e+00 1.565087187916204270e-01 1.347596525083734287e+00 -4.592299158040765578e-02 6.748791544002195053e-01 5.479993166677833427e-01 -1.487179156144847303e+00 1.273427906059255488e+00 -6.717213252364984122e-02 2.008969159240622027e+00 9.614826185828960758e-01 8.317210881890864382e-02 -3.053000136963938682e-01 7.415452937799021926e-01 -9.424235434934706834e-01 -2.709181395183053453e+00 8.948375622508784044e-01 -4.875932997826684656e-01 6.373276754049577164e-01 -7.132883534809862924e-01 1.531919954393974326e-01 -3.421398112777833123e-01 -2.056862130226047858e-01 -1.433534112691519646e-01 4.941454996205018602e-01 7.502942443403243233e-02 -3.860275174274779841e-01 2.790840152556133824e-01 -4.323114919215694796e-01 1.499549762917626872e+00 6.914761408988784330e-01 1.101650946992564495e-01 2.022229367780742082e-01 -2.466483120653013561e+00 6.297547475277192053e-01 3.115148847715826577e-02 -1.240674105959534756e+00 3.205826521503579163e-01 -2.717070054554596159e-01 1.522861442987344605e+00 -3.321623875253517655e-01 3.810699159020853877e-01 1.515642298934342991e+00 2.376362862076703830e-01 -1.570151233121272805e+00 -9.716621310605094708e-01 -6.608902951639598067e-01 -1.008884508823922888e+00 -8.020479841518726172e-01 -6.135984481473323315e-01 3.365003531376546397e-01 5.943557962770162906e-01 -3.719471269111104816e-01 -1.624397400543398651e-01 8.559228842468193932e-01 -4.004735188436022719e-01 -1.175886928925437003e+00 1.195402117753377347e+00 -1.789962059638275038e+00 -4.014793344834391431e-01 2.614380185804373591e-01 -5.679053132085438299e-02 2.836590365989821172e-01 8.652935276030301326e-01 3.401317795428327462e-01 -1.161603421242537904e+00 -7.520384808691212841e-01 1.424840183743297350e+00 2.488845035136443062e+00 -6.041604418827275502e-01 1.969888902179288692e+00 2.308691421277858924e-01 8.181405201685888751e-02 -8.280598369847721463e-01 -9.721542402462579613e-01 1.229514488875822709e+00 6.014181030242149451e-01 -5.199593774936175916e-02 -1.733243519211887573e+00 1.521444250807697074e+00 2.007332394832850586e-01 9.234565139048277471e-01 -5.394560543772665140e-01 -6.229269254082126644e-02 7.620519000687863143e-01 1.602774421169603780e-01 3.341956160733657311e-01 2.526469019246846415e-02 -4.855554432485815752e-01 3.594680195759555885e-01 1.204089876053502817e+00 -7.704038722682912121e-01 -1.657976010605439754e-01 -1.266675160158264424e+00 -6.110350580836374501e-01 1.736235255097660080e-01 5.365851603500632061e-01 1.456180391208093727e+00 7.308299633591854860e-01 -2.780660640078520096e+00 -1.556192198684149597e+00 6.607735670707885062e-03 2.567126905338353637e+00 -6.952983431743937626e-01 -1.944628325752218584e-02 -1.216516018659157039e+00 -2.007558651929746418e-01 7.887877756117525063e-01 -4.433739212977514388e-01 -1.399054588007293543e+00 -2.326570874139377298e-01 2.065131312896915539e+00 1.678652823937670235e-01 -1.162190147032443055e-01 9.458107150781361883e-01 -5.852078104729779851e-01 -4.703334828342396468e-01 -1.312972504389899653e+00 4.869741780902535067e-01 4.595955267038332459e-01 -4.841433932756816771e-01 4.414430226640154303e-02 8.192188409235674484e-01 1.075127444588275472e+00 4.914658956843104831e-01 -1.262555738332735711e-01 -4.264689166149092381e-02 3.288888587098088845e-01 -6.411514203424971692e-01 1.256386632897600997e+00 1.343791292090485978e+00 7.222177954982503256e-02 -2.252543151579783576e+00 3.035814882013350702e-01 1.382207176040024965e+00 -6.156609872738076916e-01 1.015421282041513301e-01 2.013569891617728591e-01 -9.704711959777577723e-01 -8.114253123768554454e-01 -3.707767606553492579e-01 3.096395219707210322e-01 3.043044824700522066e-01 7.854160306473297881e-01 -5.084922564463968675e-02 1.830985556629538200e-02 -1.063355390680920110e+00 1.109266555185808162e-01 -8.674177732104771943e-01 9.093956637741011928e-01 8.069603342578859362e-01 -3.302839394004416021e-03 -3.743464805795557737e-01 -1.294118089129030036e+00 -1.498480698134794009e+00 5.562047359749806574e-01 1.851826920577693270e-01 6.226600448780104102e-01 2.753060359581276928e-01 4.892989697608581823e-01 2.946258209296581110e-01 -5.530803311551191204e-02 1.148452741706142310e+00 9.440510519290962188e-01 -1.408065276891170114e+00 -3.134694375563577551e-01 9.607801931411694141e-02 6.801293474895523383e-01 -6.657815622223078877e-01 1.018665500278594704e+00 -4.648045821391850740e-01 -1.273352315620065234e+00 -5.125391731567836562e-01 -1.226157142090293251e+00 5.497466385206288830e-01 -1.411971811357346729e+00 9.844307446355559099e-01 -4.429409474896007781e-01 -9.905844234504478374e-01 5.534855370468325653e-01 -3.184517216741390433e-01 7.929334226916938677e-01 -1.441127609395748799e+00 3.838929874065357128e-01 1.099894883388247813e+00 -5.310099797942799960e-01 -1.259393795403616512e+00 1.553790273912330377e+00 2.601282985218153487e-01 1.467013478163331275e+00 1.470984804434527782e-01 -1.288848355654056199e+00 -1.328267998360732616e-01 3.409360206781624769e-01 -2.039697444102449853e-01 -4.437446744042558011e-01 6.764989495257237584e-01 1.031759615540766450e+00 -1.104507442840874321e+00 -7.875598166404176870e-02 6.876313129136736590e-02 1.053721466339230473e+00 -9.465074840924402322e-01 -8.452702887484236927e-01 -6.889245779107031620e-01 1.675010084677647448e+00 1.152660095267055373e+00 6.289170820485298075e-01 -1.723302605127363940e-01 6.464422368651364659e-01 2.468084403834226170e-01 -1.722852662036946425e+00 1.943820999292840412e-01 5.214439325816591086e-01 -4.453387584960218915e-01 5.449710711141024788e-01 2.877882286173311099e-01 -8.871335081015754159e-03 1.329288726400137843e+00 -1.047834668054540508e+00 2.698038747381608649e-01 2.839716827692381762e-01 -4.518981574233020271e-01 8.446897336066160056e-02 -1.363824301137912975e+00 -3.147251644441296792e-01 -1.383862452392087716e+00 7.619284871068431331e-01 1.823816291981988913e+00 -1.373838234558252824e-01 -1.872757244702582202e+00 -1.078447767485221753e+00 1.097917704893783153e+00 -3.921174328786992680e-01 2.622803120456995707e-01 1.039811282866209385e+00 5.312820025312298133e-01 2.166776799456694214e+00 -1.733797849099282029e+00 -3.032050786674083537e-02 9.861970926533677462e-01 2.086265268409011053e+00 4.043193752701566557e-01 -5.482620834325873105e-01 -4.393054073190245656e-01 6.967695285248913795e-01 1.222542170746707679e+00 -3.166282951614284857e-01 2.607422780074826196e-01 1.103327306392292567e-01 1.120200943613974154e+00 -1.013117573418573919e-02 -1.537657114462307906e+00 7.470993912880202759e-01 -2.083065273149959040e+00 -3.998939921431440281e-01 -1.413750500671352883e+00 -2.424761311985421663e-01 1.716319488364078938e-01 -4.984659817298628393e-01 -1.767890679836086332e-01 -8.816262046748609693e-01 2.367816514462138255e-01 -1.146674052392136378e+00 2.364417515801953418e-01 6.240453553758227301e-01 -5.841294897179993839e-01 -1.107332057007348824e+00 -4.322760106950107595e-01 6.625707683290861238e-01 4.981111694642761378e-01 -6.238401813265921358e-01 4.125052541917130222e-01 8.528956671344879448e-01 3.658911500244235171e-01 -2.525646266167225554e-02 -1.313870333688036407e+00 -4.878920619947058612e-01 -5.563759714596767658e-01 1.758281438086785498e+00 -5.994419529710998118e-01 2.355367231926119576e-01 2.888341534697995705e-01 -1.279295678178979045e+00 3.549187092663250720e-01 -1.490793099047083459e+00 -8.837473649582593405e-01 9.300524225000161849e-01 -1.056133675524544957e+00 1.116632252131117387e+00 7.916653545077275700e-01 7.444496121509651676e-01 -4.657769734351623891e-01 -8.418882593705057094e-01 7.919286354932064675e-01 -1.021780134905635906e+00 -7.939196979458897907e-01 -8.811454083439571594e-01 1.327203561563972730e-03 -3.190379332433691123e-02 -1.707932549158690250e-01 7.614482049966141419e-01 -7.097345743976974930e-01 -9.821614887978258324e-02 -1.913636245684237069e-01 -9.477205306642068061e-01 -2.946787856591587818e-01 4.799735778240264428e-01 2.788753445057944536e+00 -1.492628352635313495e-02 8.119642156440072256e-01 -6.022398276624866403e-02 5.913558328604474612e-01 2.154418019759434255e+00 -1.919173373910087577e+00 8.088999746430931559e-01 8.154614304530721780e-02 3.901644227559484257e-01 -8.739216363048829539e-01 8.915974577791953015e-01 2.268857316707322713e+00 2.004379739718360032e+00 5.724834198759611859e-01 -8.673750928944717886e-01 -9.080242372345074253e-01 7.801709797647444766e-01 -8.399223937308858412e-01 -2.175039811479464902e+00 -1.108109558667590977e-01 -1.112310741580406770e+00 5.611211998463921935e-01 1.707521172618879646e-02 -5.657368446230671699e-01 -2.467832435703592175e-01 1.337574364132598115e+00 -8.190141810950116730e-01 1.808133589843058942e-01 -2.544446174036570363e-01 1.054661975953372410e+00 -1.383808973441912615e-01 -7.682713991300478551e-02 9.878590538742026972e-01 -1.413527843119180449e+00 1.059849948341058806e-01 -9.439672339591098638e-01 7.024249275059377684e-01 1.364344692460773389e+00 -2.198601917017792562e-01 -1.428823851310688231e-01 -4.172165440138939640e-01 3.066709260153127614e-01 3.795503938081599693e-01 6.489953425153360822e-01 6.916165231430888849e-02 5.229300303317249154e-01 -7.178350926872431037e-01 -7.077285995454459799e-01 1.679187613439423951e-02 -5.826161382721710691e-01 4.899648855346765836e-02 -7.688632671267003893e-01 -8.909181722678329030e-02 1.421149621960521303e+00 2.643269103312573254e-01 9.376402627768228026e-02 -2.216954452900093131e-01 1.899371764166304100e-01 -7.865591432073284484e-01 -8.378197453917787807e-02 4.684015557591539869e-01 -6.279991981440774529e-01 2.017112872066847418e-01 -3.711372293483582441e-01 7.852648497689493912e-01 -6.732547312886424384e-01 -3.086630169093455556e-01 -8.565841720345649390e-01 -1.048056811386038456e+00 4.594212058950885580e-01 2.334947528931270444e-01 -6.324868019727364343e-01 -1.412106537174134535e-01 -8.462478222511485293e-02 -1.101545017533563042e+00 -1.814155113944536935e-01 -4.607448099119291207e-01 1.855009946554477818e-01 1.843923348806582041e-01 -4.188821047794522023e-01 -1.465243530600796040e+00 -6.887266029509192533e-02 1.443684828811346299e-01 4.527713041290499715e-03 1.104695133387162964e-01 -3.581418444557411540e-01 1.108715824843136799e+00 -1.831494635097553891e-01 -1.631471534366117249e+00 -1.198534750104035318e+00 5.554765994995158190e-02 -1.239786046854218738e-03 1.355511923930365015e+00 -7.718344341854824764e-01 -7.595378751898687053e-01 -1.112903638018408747e+00 -2.965927150106275612e-01 7.136945878140493749e-01 -8.962629819613222582e-01 9.324867431743453228e-01 5.068081837365471243e-01 -2.485767938618660189e+00 -3.737361006386117901e-01 9.430858597225656725e-02 -1.522869670518140595e+00 -6.426195203689463176e-01 -9.507364349216933519e-01 5.866630549825579966e-01 3.512939677299188879e-01 -6.514646301955492325e-01 1.542945359881572998e+00 1.386634101829061771e+00 -9.814390087497832926e-01 -2.595018748958187516e+00 6.719223855203307894e-01 -4.291125251038672705e-01 2.718941817810734407e-01 5.173975300919468889e-01 2.399729049537946135e-01 1.497646117979653413e+00 -1.695412818390229059e+00 6.968996263556065385e-01 3.693811657440417839e-01 7.172612224142073112e-01 8.449427301785995548e-01 -5.901319876545110255e-01 2.295830762202029918e-01 -1.038516475207155620e+00 3.826933105723129974e-02 -2.136298940063475760e-01 4.936204803115685769e-01 -2.856639315878165331e+00 -2.725801521612076783e-01 1.543335653373718586e-01 2.026862496060359009e-01 1.272881289481981870e-01 3.724850017369127908e-01 1.553378897372519774e+00 9.723840968878770807e-01 1.202145093461548173e-02 8.049651580398046180e-01 9.099283963931558139e-01 1.466032859336557637e-01 2.179920794124317940e+00 7.420194052420340247e-01 1.220678635021365421e+00 1.284201343416220498e+00 9.588688348930742844e-01 -9.225771965509824701e-01 -3.548775716123440671e-01 -2.893257484348731867e-01 -1.902020000641334863e-01 1.011160449530425165e+00 2.328648325665420502e-02 -5.472716944129932815e-01 -6.650256578304059030e-01 -6.368252818057139608e-01 -8.243677325399720313e-02 -3.223135189416111070e-03 -5.130909319408046843e-01 -1.584113352882444981e-01 -6.156455606535647940e-01 3.794316088322896574e-01 4.409827951601023033e-01 -1.373105470096715353e+00 2.139101442740935777e-01 6.394277526406908496e-01 -8.825384321518908726e-01 6.691743902343958439e-01 -4.853677527022930149e-02 -7.453510409938250980e-01 1.464773018683387940e-01 5.249370336253258995e-02 -8.660093227823006945e-01 -7.845824789335385796e-02