-1.057915759127309720e+05
-1.057869546017764224e+05
-1.057911239616187668e+05
-1.057886786896805133e+05
-1.057824013948008360e+05
-1.057929058576167008e+05
-1.057928642371044116e+05
-1.057891000627779140e+05
-1.057807246213308099e+05
-1.057932957813393878e+05
-1.057828004219418945e+05
-1.057954129487309256e+05
-1.057922760354392522e+05
-1.057916938622888993e+05
-1.057879498143204255e+05
-1.057895036527891352e+05
-1.057924937761716137e+05
-1.057881786972137925e+05
-1.057903251977839973e+05
-1.057830075021371449e+05
-1.057887196773447213e+05
-1.057819768022353092e+05
-1.057855004420437908e+05
-1.057935095427865017e+05
-1.057844305277291423e+05
-1.057864035583774821e+05
-1.057937427790067304e+05
-1.057962480063269759e+05
-1.057907217870420718e+05
-1.057907353184492822e+05
-1.057853793667544523e+05
-1.057899134091048327e+05
-1.057899694638102810e+05
-1.057818318381139979e+05
-1.057880421432402363e+05
-1.057922339269642107e+05
-1.057880887378074112e+05
-1.057835555290565826e+05
-1.057965790474687092e+05
-1.057863510637293803e+05
-1.057916435714564577e+05
-1.057931877821590897e+05
-1.057916211726467591e+05
-1.057860898083552311e+05
-1.057999789738564141e+05
-1.057963349776591203e+05
-1.057885089041943575e+05
-1.057844006178890850e+05
-1.057892434484256082e+05
-1.057880484778284444e+05
-1.057868387148020702e+05
-1.057918709173077659e+05
-1.057868945749217528e+05
-1.057911736861623358e+05
-1.057857647483037144e+05
-1.057963111818135076e+05
-1.057878521930248098e+05
-1.057825001717648120e+05
-1.057912145924306387e+05
-1.057920065158258949e+05
-1.057953405552822514e+05
-1.057890944033866253e+05
-1.057943044022470276e+05
-1.057926503917047958e+05
-1.057949307680382335e+05
-1.057952299365690269e+05
-1.057988504202543991e+05
-1.057909659620142775e+05
-1.057885725385318947e+05
-1.057927661257377476e+05
-1.057872754972102848e+05
-1.057943457898251654e+05
-1.057951934568883007e+05
-1.057866849870195583e+05
-1.057885374124533846e+05
-1.057917342781251937e+05
-1.057928621211039572e+05
-1.057884674307853711e+05
-1.057873031029012636e+05
-1.057869842684877949e+05
-1.057925578527532489e+05
-1.057896100856047415e+05
-1.057913118378437066e+05
-1.057907806759072555e+05
-1.057877489826974343e+05
-1.057904793018938944e+05
-1.057922491710318718e+05
-1.057962119594053511e+05
-1.057911505806325295e+05
-1.057905905345049541e+05
-1.057854136927686632e+05
-1.057902836093503429e+05
-1.057924127936068689e+05
-1.057951818854657613e+05
-1.057869996470796177e+05
-1.057912985821314360e+05
-1.057859998581160617e+05
-1.057927161340554885e+05
-1.057913410969536053e+05
-1.057932747191250965e+05
-1.057895015345376742e+05
-1.057897783779346937e+05
-1.057893493828404316e+05
-1.057918823940212314e+05
-1.057863870172081370e+05
-1.057919336873647699e+05
-1.057953876189927978e+05
-1.057905006139435718e+05
-1.057951457120588602e+05
-1.057951989712318173e+05
-1.057852949253110564e+05
-1.057976244197603955e+05
-1.057979317633710452e+05
-1.057929605743365828e+05
-1.057875644917673926e+05
-1.057836846596077958e+05
-1.057928148523793789e+05
-1.057893504835798376e+05
-1.057939167467843799e+05
-1.057913893009400490e+05
-1.057822301097414165e+05
-1.057909969369588798e+05
-1.057892594374955079e+05
-1.057820995702202345e+05
-1.057904114550803060e+05
-1.057936593138840544e+05
-1.057879532503352239e+05
-1.057971498771204497e+05
-1.057931202203481225e+05
-1.057848804103982402e+05
-1.057860813101537497e+05
-1.057943124421096290e+05
-1.057873540669483191e+05
-1.057919761827547336e+05
-1.057961261687739752e+05
-1.057854816585875815e+05
-1.057861907033419702e+05
-1.057919366419931612e+05
-1.057867618845077232e+05
-1.057992544884067465e+05
-1.057871886447266734e+05
-1.057952624841208308e+05
-1.057887964667075721e+05
-1.057930901388511120e+05
-1.057918040706580941e+05
-1.057903828241526644e+05
-1.057903085601287894e+05
-1.057746253926752252e+05
-1.057864704468365962e+05
-1.057926400327287847e+05
-1.057905137651364348e+05
-1.057937808971310005e+05
-1.057927989971692441e+05
-1.057901214645157161e+05
-1.057810646328312141e+05
-1.057903174446376797e+05
-1.057875123770353530e+05
-1.057992252919519378e+05
-1.057925255333348468e+05
-1.057932836555893591e+05
-1.057867532416233007e+05
-1.057878825389388512e+05
-1.057853080355337297e+05
-1.057939394190338207e+05
-1.057917301411050430e+05
-1.057928727617210534e+05
-1.057799694420227897e+05
-1.057922052723545057e+05
-1.057830825508728449e+05
-1.057896755415297230e+05
-1.057919146007987001e+05
-1.057956076992856106e+05
-1.057867679547267326e+05
-1.057873901629070169e+05
-1.057918560029893852e+05
-1.057899337209884834e+05
-1.057934441769212572e+05
-1.057755450985009666e+05
-1.057926652022131166e+05
-1.057954851350092649e+05
-1.057909277856711706e+05
-1.057957791053916008e+05
-1.057850029748618836e+05
-1.057903486940871953e+05
-1.057899249167641246e+05
-1.057894056493354437e+05
-1.057892237154289323e+05
-1.057844524615219125e+05
-1.057868085770600446e+05
-1.057919657250478340e+05
-1.057921386240131833e+05
-1.057891152079326712e+05
-1.057888639478150726e+05
-1.057806244708294398e+05
-1.057904999662161426e+05
-1.057815317970908654e+05
-1.057949659802812967e+05
-1.057852745378267864e+05
-1.057922432303257083e+05
-1.057899924053663708e+05
-1.057959330965525005e+05
-1.057886295282224019e+05
-1.057927575169220072e+05
-1.057886910771797993e+05
-1.057960652082596789e+05
-1.057925437777370389e+05
-1.057845752851587313e+05
-1.057930143859241653e+05
-1.057896862489764171e+05
-1.057968235846370226e+05
-1.057850376254235744e+05
-1.057864786300952983e+05
-1.057914423891848128e+05
-1.057898658671567682e+05
-1.057876317943316972e+05
-1.057925930268768425e+05
-1.057875693594564509e+05
-1.057882479913861171e+05
-1.057875450905955076e+05
-1.057899034640653263e+05
-1.057875631956309953e+05
-1.057854381208519771e+05
-1.057812936357832514e+05
-1.057940724634682701e+05
-1.058001300520538207e+05
