-2.040275920135446697e+01 2.360936255583835575e+00 1.104110694770443679e+01 2.360936255583835575e+00 -1.516967047569448823e+01 2.120716874470307189e+01 1.104110694770443679e+01 2.120716874470307189e+01 -4.901366706233130088e+01
-9.912349583987789536e-02 -2.469883842964129439e+00 1.030161919988886865e+01 -2.469883842964129439e+00 -9.316905035721099182e+00 1.202068598119797116e+01 1.030161919988886865e+01 1.202068598119797116e+01 2.662735979174619771e+01
-5.390997893598337498e+01 -1.514024546440175101e+01 -1.754364080638240964e+01 -1.514024546440175101e+01 -1.839510484921228795e+01 -1.188647855707504775e+01 -1.754364080638240964e+01 -1.188647855707504775e+01 -1.463100913429705585e+01
-1.878978932477074082e+01 -1.129794850704005427e+01 -8.341652650501296673e-01 -1.129794850704005427e+01 -2.522009698667111621e+01 -2.230218295863596722e+01 -8.341652650501296673e-01 -2.230218295863596722e+01 -4.174248206340664069e+01
1.052539177286006211e+00 2.391514427746026428e+01 1.597770009008590009e+01 2.391514427746026428e+01 -3.530627681272288498e+01 -1.332109871545974045e+01 1.597770009008590009e+01 -1.332109871545974045e+01 -5.775176409306212122e+00
-4.296250444308030580e+01 2.412510050042727272e+01 6.201882214847531216e+00 2.412510050042727272e+01 5.632449655190133520e+00 -1.485397370604604461e+01 6.201882214847531216e+00 -1.485397370604604461e+01 -1.926879598908472158e+00
-5.032980725208364703e-01 -5.360876393431811771e+00 1.205621835959387234e+01 -5.360876393431811771e+00 4.089268320672471191e+01 -2.912276926758584406e+00 1.205621835959387234e+01 -2.912276926758584406e+00 1.733111201755342723e+00
-9.667865376971755964e+00 -9.583802027816476610e+00 3.126247837142551944e+00 -9.583802027816476610e+00 -5.108600919329528978e+01 1.060650234789235213e+01 3.126247837142551944e+00 1.060650234789235213e+01 -4.599091188387507145e+01
-3.880355318403398712e+01 -4.397728777580307002e-01 -2.809253857297440504e+01 -4.397728777580307002e-01 -1.675222812349974788e+01 -8.078942458315788500e+00 -2.809253857297440504e+01 -8.078942458315788500e+00 -5.290389664350464471e+01
-2.860101984271743447e+01 -1.978269484151594781e+01 -9.106866676079208744e+00 -1.978269484151594781e+01 1.228023512177150955e+01 -2.597680932979040591e+01 -9.106866676079208744e+00 -2.597680932979040591e+01 -6.233939550064719448e+00
-6.309902909979351904e+01 2.403546775162198657e+01 4.298435199751995839e+00 2.403546775162198657e+01 -4.761953111618194612e+01 -3.672687949286263631e+01 4.298435199751995839e+00 -3.672687949286263631e+01 -2.658051416002995282e+01
-8.338639203078443529e+01 1.750694117503990843e-01 -8.721418736982359476e+00 1.750694117503990843e-01 -6.883218648219018299e+00 -4.642553723905545127e+01 -8.721418736982359476e+00 -4.642553723905545127e+01 -7.049252267939662886e+01
-5.142790259121413854e+00 -2.347199686579751443e+01 8.512342440804840038e+00 -2.347199686579751443e+01 4.726370161661176184e+01 -5.072767343826242836e+00 8.512342440804840038e+00 -5.072767343826242836e+00 1.559081089954417898e+01
3.435495304697844698e+00 1.810663383707878538e+01 -7.073111126559822104e+00 1.810663383707878538e+01 3.466458651108459321e+01 4.109960723113587733e+01 -7.073111126559822104e+00 4.109960723113587733e+01 1.488102200565549182e+01
-6.932121702413441255e+01 -1.665053548667078331e+01 -2.625375231359889483e+01 -1.665053548667078331e+01 -3.421617271715824415e+01 -1.567303317421895770e+00 -2.625375231359889483e+01 -1.567303317421895770e+00 -4.282334901464291477e+01
-1.977100960578986744e+01 2.559112467751771547e+01 -1.974988080317516292e+01 2.559112467751771547e+01 -1.856813400363827471e+00 2.486623512028522498e+01 -1.974988080317516292e+01 2.486623512028522498e+01 5.259675452104650617e+01
-4.876931759506751973e+01 -2.954056623819719718e+01 2.352755134253126934e-01 -2.954056623819719718e+01 2.244494994553446432e+01 4.865724180668066445e+00 2.352755134253126934e-01 4.865724180668066445e+00 -2.161428907121327470e+01
-2.769019773431577036e+01 -2.205390108425189766e+01 -4.983836314844976911e+00 -2.205390108425189766e+01 1.281955258613352022e+01 -4.316947405962475415e+01 -4.983836314844976911e+00 -4.316947405962475415e+01 -2.969752812315639190e+01
-1.716905652970634222e+01 -2.013852052102926837e+00 6.398975309835873482e+00 -2.013852052102926837e+00 -3.819540882331464360e+01 6.392907114057878815e+00 6.398975309835873482e+00 6.392907114057878815e+00 3.454657190542276624e+01
-1.191691003814242533e+00 1.624331615727273714e+01 9.093708340206525520e+00 1.624331615727273714e+01 -2.000698363431018123e+01 -8.702982826319880516e+00 9.093708340206525520e+00 -8.702982826319880516e+00 -2.790179377707871211e+01
-6.617993025465618473e+01 2.106855106873652961e+00 -3.130792950418939924e+01 2.106855106873652961e+00 -2.075329056507007408e+01 5.633367395156519741e+00 -3.130792950418939924e+01 5.633367395156519741e+00 -8.844916995752988953e+01
-4.999786221691438470e+01 1.070784853153617888e+01 -2.114546068036055360e+01 1.070784853153617888e+01 -5.383767266000166751e-01 3.390263603613148291e+01 -2.114546068036055360e+01 3.390263603613148291e+01 -3.099850845918593389e+00
-9.978536711872266096e+00 -2.229796542538067783e+01 1.951923177139657639e+01 -2.229796542538067783e+01 -1.560555832731256309e+01 -1.263399824247053260e+01 1.951923177139657639e+01 -1.263399824247053260e+01 -9.534387830237530892e+00
4.846694249338854288e-01 -1.187541161200677919e+01 1.641668620776861687e+01 -1.187541161200677919e+01 -5.105338891891988418e+00 1.444990034655539546e+01 1.641668620776861687e+01 1.444990034655539546e+01 -5.045587367582586324e+01
-7.884689962085126069e+01 3.780043171605442609e+01 -7.611100886746252847e+00 3.780043171605442609e+01 -4.876930009802050492e+00 1.944436520906010379e+00 -7.611100886746252847e+00 1.944436520906010379e+00 -4.856690368628295396e+00
-6.263566917137670487e+01 1.485887293570814371e+01 1.494886719496455996e+01 1.485887293570814371e+01 -1.230482518015354998e+01 -1.907423480241537561e+01 1.494886719496455996e+01 -1.907423480241537561e+01 -1.442186194313692305e+01
-4.473663349596398575e+01 -1.332779142574955067e+01 4.393972950207127859e+00 -1.332779142574955067e+01 -6.710104429707700824e+00 2.463926332404584940e+01 4.393972950207127859e+00 2.463926332404584940e+01 -5.775619437169347492e+01
-2.851273357931637875e+01 1.013557053795346796e+01 1.977863560511242014e+00 1.013557053795346796e+01 -2.357209006616509228e+01 2.524945321257087016e+01 1.977863560511242014e+00 2.524945321257087016e+01 -2.851609349367737689e+00
1.207460378918659138e+01 6.068539853397538764e+00 -2.313844569294008124e+01 6.068539853397538764e+00 2.901220877725359415e+01 4.224348639832879115e+01 -2.313844569294008124e+01 4.224348639832879115e+01 1.397860119235846854e+00
-1.068685494810818071e+01 2.897244668904241749e+01 -2.639675015182786311e+01 2.897244668904241749e+01 6.335471235681739088e+00 2.146056202264574964e+01 -2.639675015182786311e+01 2.146056202264574964e+01 1.276797926410132611e+01
-4.334204096203919221e+01 1.540862611409643712e+01 1.133905356539840525e+01 1.540862611409643712e+01 -4.258111874389495455e+01 -9.239842255281077499e+00 1.133905356539840525e+01 -9.239842255281077499e+00 -2.392460414201178764e+01
-4.503963718952940454e+00 -3.129231461637354883e+00 -2.314996081147011253e+01 -3.129231461637354883e+00 1.132335598650562147e+01 1.519084386049096125e+00 -2.314996081147011253e+01 1.519084386049096125e+00 2.419063293137811499e+01
-2.372145909349512038e+01 -1.273040517605698696e+01 3.142497221350608427e+01 -1.273040517605698696e+01 5.906535570644110322e+01 -5.204304312299912638e+00 3.142497221350608427e+01 -5.204304312299912638e+00 7.888239853270399671e+00
-1.622059566593912905e+01 -5.031358207326010756e+01 -9.354023810518640403e+00 -5.031358207326010756e+01 -1.405400367658471339e+01 2.795621664198019829e+01 -9.354023810518640403e+00 2.795621664198019829e+01 -5.679804043597963670e+01
1.105922906715653298e+01 1.165595306610726389e+01 -4.022051143843169418e-01 1.165595306610726389e+01 3.801803472741366363e+01 3.609236560685315709e+01 -4.022051143843169418e-01 3.609236560685315709e+01 1.129065729243462002e+01
-5.742104550220756209e+01 1.120351410107511470e+01 5.928206697379919454e+00 1.120351410107511470e+01 -3.049044568285527390e+01 1.322885957061226581e+00 5.928206697379919454e+00 1.322885957061226581e+00 -5.500775618751749363e+01
-5.613401922602011496e+01 9.695182623319441362e+00 3.070808467881336878e-01 9.695182623319441362e+00 -9.333361657232009634e+01 -1.011624339588694177e+01 3.070808467881336878e-01 -1.011624339588694177e+01 -4.479688779373817198e+01
-5.031723598763099936e+00 -7.814504460788885609e+00 1.110545493618755231e+01 -7.814504460788885609e+00 -6.021545759961426825e+01 1.654196748046307874e+01 1.110545493618755231e+01 1.654196748046307874e+01 -8.442519463533251667e+00
-2.537039998510826422e+01 1.218440832302411340e-02 -8.119704951692134909e-01 1.218440832302411340e-02 2.030692465604768771e+01 -1.298750652880028689e+01 -8.119704951692134909e-01 -1.298750652880028689e+01 -6.717038542756523789e-01
-8.417916007200835438e+00 2.945791914609189277e+01 2.138904089256625696e+01 2.945791914609189277e+01 1.299604128247552381e+01 1.085598119673275264e+01 2.138904089256625696e+01 1.085598119673275264e+01 -1.955408815647901477e+01
5.910798705980597312e+00 4.127289529254014155e+01 -3.359517719502111976e+00 4.127289529254014155e+01 8.069466214521227698e+00 3.453985894221655428e+01 -3.359517719502111976e+00 3.453985894221655428e+01 -1.053457789820810753e+01
-5.621030842059869315e+01 4.678368763257401142e+00 3.662237695537643223e+00 4.678368763257401142e+00 -1.192528281302431381e+00 4.567354927797483555e+01 3.662237695537643223e+00 4.567354927797483555e+01 -5.190168200712572855e+01
-2.714647728097939705e+01 8.441465320041391607e+00 -4.075289507578396808e+00 8.441465320041391607e+00 -8.531954814592663183e+01 7.451512909483891001e+00 -4.075289507578396808e+00 7.451512909483891001e+00 -2.775848971278417565e+01
-2.631390988600661984e+01 3.618362431739924556e+00 1.929076603260167388e+01 3.618362431739924556e+00 3.518024662688608117e+01 -4.948986711186168508e-01 1.929076603260167388e+01 -4.948986711186168508e-01 -2.639080739279327403e+00
-6.096885686223608047e+01 1.043905085953340972e+01 3.195503464474541921e+00 1.043905085953340972e+01 3.282796343542766060e+00 3.706289744921072327e+01 3.195503464474541921e+00 3.706289744921072327e+01 -6.001640747044618962e+01
-6.066738648960976121e+01 5.074759897045617585e+00 -1.770341078075658103e+01 5.074759897045617585e+00 -5.865684353764478942e+01 2.948859582788189115e+01 -1.770341078075658103e+01 2.948859582788189115e+01 -6.818505828294664184e+01
-2.668817738126595529e+01 2.405856604423662759e+01 4.129065216733155097e+01 2.405856604423662759e+01 1.629131910273643413e+01 2.196358175001478674e+00 4.129065216733155097e+01 2.196358175001478674e+00 -2.594515430412193879e+01
-2.348276999788506458e+00 8.779067083829945162e+00 -2.424847399581772933e+01 8.779067083829945162e+00 -7.446560467952851070e+01 -1.491653556702018335e+01 -2.424847399581772933e+01 -1.491653556702018335e+01 -8.804387469834027868e+00
1.766153744245173840e+01 -7.199719101487932482e-01 -1.693994663214065000e+01 -7.199719101487932482e-01 -1.552043912934402581e+00 7.443286513657362491e+00 -1.693994663214065000e+01 7.443286513657362491e+00 3.166148491039504265e+01
-1.014586682654838157e+01 -1.317115762058961259e+01 1.058348886772376707e+00 -1.317115762058961259e+01 6.293608508233973220e-01 1.170482254994388605e+01 1.058348886772376707e+00 1.170482254994388605e+01 2.766174889775066248e+01
-3.365825252026720449e+01 -4.300173678440740588e+01 -1.622472196497226449e+01 -4.300173678440740588e+01 3.217543017232194558e+01 -1.261878486130200550e+01 -1.622472196497226449e+01 -1.261878486130200550e+01 7.564346731687156478e+01
-4.781402274856665002e+01 -2.930406098900231626e+00 6.551598853247521781e+00 -2.930406098900231626e+00 -4.232990923441094822e+01 1.235758303427354399e+01 6.551598853247521781e+00 1.235758303427354399e+01 -4.569269594280537206e+01
-3.086572960900062057e+01 8.996437907539835521e+00 1.531993361643194662e+00 8.996437907539835521e+00 -3.738376831805364020e+01 -1.546115671481024201e+01 1.531993361643194662e+00 -1.546115671481024201e+01 -2.586747260872052223e+01
-6.725078473570168569e+01 2.194730566456095744e+01 -1.652719741538546927e+01 2.194730566456095744e+01 -2.186933958576318915e+01 -1.337853442662671277e+01 -1.652719741538546927e+01 -1.337853442662671277e+01 -1.866697851473140446e+01
-2.625013762087673896e+01 1.643121009661069465e+01 2.189287676875326483e+01 1.643121009661069465e+01 2.665632041697199472e+00 6.883800067724502370e+00 2.189287676875326483e+01 6.883800067724502370e+00 -1.533388682141521819e+01
-2.854658248649271712e+01 -2.389148882036732502e+01 -1.222888655782934642e+01 -2.389148882036732502e+01 1.471131209245226934e+01 -2.449048093312240582e+01 -1.222888655782934642e+01 -2.449048093312240582e+01 1.192685598297667227e+01
-3.414835067588892770e+01 -2.201449909601998911e+01 9.312352030548206372e+00 -2.201449909601998911e+01 -6.086961561070673099e+00 -1.174265378552845540e+01 9.312352030548206372e+00 -1.174265378552845540e+01 -1.469474649776289610e+01
3.658380110216179482e+00 3.015372729821503484e+01 -8.174665672243870418e+00 3.015372729821503484e+01 -3.531670017287747498e+01 1.903199263355065085e+01 -8.174665672243870418e+00 1.903199263355065085e+01 -6.894940565812511579e+01
-5.426038950957706719e-01 -6.074462140931975895e+00 3.167454505557150579e+00 -6.074462140931975895e+00 1.935968927711895660e+01 -1.886957138595498762e+01 3.167454505557150579e+00 -1.886957138595498762e+01 -1.778513958405239137e+01
-1.796842979037500498e+01 2.208646494227867763e+01 9.082284416172914376e+00 2.208646494227867763e+01 -4.368440963104025343e+01 1.803489751655844575e+00 9.082284416172914376e+00 1.803489751655844575e+00 6.216416902037020975e+01
-3.794510628910291672e+01 -9.569967960636518001e+00 1.273248942768004000e+01 -9.569967960636518001e+00 1.135272589422843303e+01 -1.324154342516101224e+01 1.273248942768004000e+01 -1.324154342516101224e+01 -1.961731288564428510e+01
-4.432531494705269637e+01 -5.191574012621889445e+00 -9.391793022209938613e+00 -5.191574012621889445e+00 4.754823832479215362e+00 4.021568035414593822e+01 -9.391793022209938613e+00 4.021568035414593822e+01 -4.112837196454928623e+00
-1.406498136082799988e+01 4.915651144832528630e+00 8.026175782457867669e+00 4.915651144832528630e+00 -4.713194784360104705e+01 -1.741595393405491166e+01 8.026175782457867669e+00 -1.741595393405491166e+01 -4.744414844042291435e+01
-7.630082913491639829e+01 -1.735309020266921465e+01 -2.003034445474103009e+01 -1.735309020266921465e+01 -1.755309142666876454e+01 2.130528921829349187e+01 -2.003034445474103009e+01 2.130528921829349187e+01 1.447163793607355053e+01
-3.629129429540799379e+01 5.166839808479588569e+00 1.046046657638815880e+01 5.166839808479588569e+00 -1.274898726702686069e+01 -8.722117587425554319e+00 1.046046657638815880e+01 -8.722117587425554319e+00 -9.362936706812330812e+00
-4.152990970597511478e+01 -1.093148600559413808e+01 -6.015070864088975355e+01 -1.093148600559413808e+01 2.815420077637965424e+00 1.014553713298102089e+01 -6.015070864088975355e+01 1.014553713298102089e+01 2.285846562498579715e+01
-2.515703804932206822e+01 -1.235886084033916837e-01 -6.732277264513250259e+00 -1.235886084033916837e-01 -3.225053056091283565e+01 -6.404656366582702987e+00 -6.732277264513250259e+00 -6.404656366582702987e+00 8.382282328553197104e+00
-2.378380372077021221e+01 -3.496536853508262072e-02 -2.017198412356873050e+01 -3.496536853508262072e-02 2.882172429875717867e+01 -1.489510137539454604e+01 -2.017198412356873050e+01 -1.489510137539454604e+01 -1.556280360781206440e+01
-6.105933460032808568e+00 2.023919378916714251e+01 1.719223413047346938e+01 2.023919378916714251e+01 -1.660948505747796133e+01 -5.597058840931554613e+01 1.719223413047346938e+01 -5.597058840931554613e+01 4.174093957842069358e+01
-2.626672745320170321e+01 -8.492460675153687077e+00 9.263514190862824904e+00 -8.492460675153687077e+00 7.493169801137121055e+00 -1.176124328697661170e+01 9.263514190862824904e+00 -1.176124328697661170e+01 -2.950206682428635929e+01
-1.626205620020763476e+01 3.907269447355302461e+00 2.146070415280376764e+01 3.907269447355302461e+00 1.575898806329794510e+01 2.941207605889479737e+01 2.146070415280376764e+01 2.941207605889479737e+01 -5.154501318095448426e+01
2.528071809640684897e+00 -3.040242027955939008e+01 -3.045351411440250544e+01 -3.040242027955939008e+01 3.470346244873349661e+01 -1.108046400921940311e+01 -3.045351411440250544e+01 -1.108046400921940311e+01 1.025546552923103683e+01
-3.343111178847175324e+01 -1.189920510537827880e+01 -1.464952309795781993e+01 -1.189920510537827880e+01 -3.229809753415091222e+01 1.890949771001665880e+01 -1.464952309795781993e+01 1.890949771001665880e+01 7.846875778143030722e+00
-3.919833922969770157e+01 5.527448288236382901e+00 -5.894941885403591542e+00 5.527448288236382901e+00 -4.975235574290329765e+01 -2.018527534635416387e+01 -5.894941885403591542e+00 -2.018527534635416387e+01 -2.380437912077764651e+01
-5.749117567634849024e+01 -2.084484573963371901e+01 1.401786244858466546e+01 -2.084484573963371901e+01 -3.677132594002694788e+01 1.504454680908367337e+01 1.401786244858466546e+01 1.504454680908367337e+01 -3.525604810719665494e+01
-3.215656727449071894e+01 1.568969266903151549e+01 2.111970048353040141e+01 1.568969266903151549e+01 -3.453116133399231558e+01 7.147397409853995853e+00 2.111970048353040141e+01 7.147397409853995853e+00 -1.121392153250345736e+01
-4.284286080368507044e+01 -1.645148485503236557e+01 -2.296205487401294576e+01 -1.645148485503236557e+01 -4.453748204231895613e+01 -6.732280500599273410e+00 -2.296205487401294576e+01 -6.732280500599273410e+00 -7.438269108727416778e+01
-2.977476668406262306e+01 4.757367160031305886e+00 4.536717422892810325e-01 4.757367160031305886e+00 1.776756910389562094e+01 -8.304384747120781896e+00 4.536717422892810325e-01 -8.304384747120781896e+00 2.452372048186413966e+00
-2.374354768238832492e+01 1.384022010688367033e+01 -1.883748142747765897e+01 1.384022010688367033e+01 -1.836202310754974931e+01 9.694418005947996519e+00 -1.883748142747765897e+01 9.694418005947996519e+00 -3.373646118508880676e+01
-4.318989810232849891e+01 -2.626337250361955000e+01 2.501457531852260630e+01 -2.626337250361955000e+01 -2.692620387535646742e+01 3.556580947556044947e+01 2.501457531852260630e+01 3.556580947556044947e+01 2.611649436225397025e+01
1.213366768295377085e+01 -1.395025268659741968e+01 -1.203308750840701613e+01 -1.395025268659741968e+01 -1.948506338421340800e+01 1.650179939475235358e+01 -1.203308750840701613e+01 1.650179939475235358e+01 -2.507808839196785300e+01
-7.590356737485858218e+01 -1.884192044430403357e+01 -3.690659295149443864e+01 -1.884192044430403357e+01 -4.493934339383221754e+01 -4.289713157752061079e+01 -3.690659295149443864e+01 -4.289713157752061079e+01 -1.825279863140434955e+01
-5.932182644461639853e+01 1.512968829798427173e+01 6.456401425496957280e+00 1.512968829798427173e+01 4.926234851282899996e+01 7.807178223222063451e+00 6.456401425496957280e+00 7.807178223222063451e+00 -1.884229286219122201e+01
6.030653718999751334e+00 -9.771901672312846898e+00 2.771441000843928304e+00 -9.771901672312846898e+00 -4.623481570278117658e+01 3.052921067118894882e+01 2.771441000843928304e+00 3.052921067118894882e+01 3.848238783581528377e+00
-4.342838930925371699e+01 -8.945766058294474243e-01 -2.447932948261954067e+00 -8.945766058294474243e-01 1.920648925668906770e+01 2.673422355438905385e+01 -2.447932948261954067e+00 2.673422355438905385e+01 3.520624346614239641e+01
-7.005459084580009232e+01 -4.049465598073574313e+01 -2.424158219071002929e+00 -4.049465598073574313e+01 -6.459458819355408821e+01 1.275817158782495220e+01 -2.424158219071002929e+00 1.275817158782495220e+01 -1.405163926866509705e+01
-2.844304795198049263e+01 -1.396631082066525975e+00 1.511483649898777060e+01 -1.396631082066525975e+00 -3.428128695924782310e+00 -1.911543918529321928e+00 1.511483649898777060e+01 -1.911543918529321928e+00 -2.548993865953162441e+01
-5.940225326823530594e+01 -2.465410608640969770e+01 3.087851223483117380e+01 -2.465410608640969770e+01 -1.310890624130387039e+00 7.489396418133426714e+00 3.087851223483117380e+01 7.489396418133426714e+00 -8.739809324749057851e+01
-5.770551844903435068e+01 2.031203682958565349e+00 -5.501366567697847820e+00 2.031203682958565349e+00 -1.040879447015931802e+01 -1.876589410710004202e+01 -5.501366567697847820e+00 -1.876589410710004202e+01 -5.772323002299960848e+01
-3.670862110452570448e+01 -2.550443628841546584e+01 -2.986870291015201317e+01 -2.550443628841546584e+01 -7.014609231161176695e+01 1.292646546935498897e+01 -2.986870291015201317e+01 1.292646546935498897e+01 -2.485881587594424147e+01
-3.303716266628070741e+01 -1.683472633778757555e+01 -2.992245692504626220e+01 -1.683472633778757555e+01 -2.624653309676626023e+01 3.235391527315316296e+01 -2.992245692504626220e+01 3.235391527315316296e+01 5.773176159560230225e+00
-1.590266842022639793e+01 1.978372715113429336e+01 -3.061889989207291762e+01 1.978372715113429336e+01 7.238307797573884272e+01 3.446903054816782230e+01 -3.061889989207291762e+01 3.446903054816782230e+01 2.726753980698249080e+01
-9.207533742033041335e+01 2.481974851569386331e+01 -1.144115879559489279e+01 2.481974851569386331e+01 -8.627693639682931348e+01 -2.163265409636123238e+01 -1.144115879559489279e+01 -2.163265409636123238e+01 8.323883186398076006e+00
-1.513223386530734871e+01 1.280252983017945567e+01 -4.453490312428304954e+00 1.280252983017945567e+01 -6.639791862931073929e+00 -2.994129560079808883e+01 -4.453490312428304954e+00 -2.994129560079808883e+01 -6.473784025052938773e+01
-1.763069580539331938e+01 -3.315759381488800273e+01 1.607112852074632414e+01 -3.315759381488800273e+01 3.212613330369931219e+01 -1.806786518521255047e+01 1.607112852074632414e+01 -1.806786518521255047e+01 -4.509958845456672094e+01
-6.921383483420393556e-01 -4.538959418597686124e+01 1.176556982917931649e+01 -4.538959418597686124e+01 -2.830477839767494785e+00 2.841367085334083242e+01 1.176556982917931649e+01 2.841367085334083242e+01 -8.069015185435414850e+00
3.657139066877070377e+01 -3.428126756943446818e+00 -1.123102087449318631e+01 -3.428126756943446818e+00 -3.561010964803612922e+01 1.084016821883040471e+01 -1.123102087449318631e+01 1.084016821883040471e+01 -2.313047121670217532e+00
-7.956262045993028664e+01 1.321042432370926534e+01 -6.576601550471685265e+00 1.321042432370926534e+01 -5.531498678985484752e+00 -1.364523837465575440e+01 -6.576601550471685265e+00 -1.364523837465575440e+01 -4.973313369298593045e+01
1.415632116447136113e+01 -8.741338125868054476e+00 2.682319842157642853e+00 -8.741338125868054476e+00 -2.688900653098844273e+01 5.692778855671821958e+00 2.682319842157642853e+00 5.692778855671821958e+00 2.150767864229042914e+01
-1.003559678408266720e+01 2.851100323527619196e+01 -1.159591925806303658e+00 2.851100323527619196e+01 2.707174586184346765e+01 -1.562575685427417582e+01 -1.159591925806303658e+00 -1.562575685427417582e+01 1.635120048099128454e+01
-6.895035362816255997e+01 -5.876330757796334403e+00 -5.736207272163422743e+00 -5.876330757796334403e+00 -3.081395629381164269e+01 5.274965662229224250e+00 -5.736207272163422743e+00 5.274965662229224250e+00 -8.490000018041390817e+00
-5.389405448971156432e+01 1.121108512768326904e+01 5.079137826044127557e+00 1.121108512768326904e+01 -9.258901792814398846e+00 8.164309888411180882e-01 5.079137826044127557e+00 8.164309888411180882e-01 -3.084589580164450950e+01
-4.840618659524165679e+01 -1.964315170375948583e+01 2.514588356362419841e+00 -1.964315170375948583e+01 -1.987062080803131181e+01 2.786222933709152016e+01 2.514588356362419841e+00 2.786222933709152016e+01 -1.831450345575957783e+01
2.308071750963003055e+01 -2.375809343722745481e+01 4.870829115829092615e+01 -2.375809343722745481e+01 -2.273496278985572516e+01 3.474704357188711157e+01 4.870829115829092615e+01 3.474704357188711157e+01 3.050124201485943942e+01
-2.941759638308050384e+01 -8.436994606196247304e+00 -2.638418478499522735e+01 -8.436994606196247304e+00 -1.001183411872545719e+02 2.079669426735630466e+01 -2.638418478499522735e+01 2.079669426735630466e+01 1.512035185686101535e+01
-3.347609391132898082e+01 1.338640556011443650e+01 -6.499364193824705183e+01 1.338640556011443650e+01 -2.515097469842750044e+01 -4.661483351253266960e+01 -6.499364193824705183e+01 -4.661483351253266960e+01 -3.791643350776037380e+01
-1.784197302864441426e+01 -1.219756041260941970e+01 -1.810647556655005275e+01 -1.219756041260941970e+01 -7.285912941996720349e+00 1.284987057448923231e+01 -1.810647556655005275e+01 1.284987057448923231e+01 1.335625549404152856e+01
-3.190809448664492365e+01 1.060915494009536220e+00 1.228833290361020936e+01 1.060915494009536220e+00 -1.032036141747557245e+01 -3.752558024250010504e+01 1.228833290361020936e+01 -3.752558024250010504e+01 -4.569931826858270085e+01
-5.957196788299940948e+01 3.441803090690174649e+00 -5.108403434151518319e+00 3.441803090690174649e+00 3.914792999553999397e+00 -1.763768490643728271e+01 -5.108403434151518319e+00 -1.763768490643728271e+01 -3.836460623551634797e+01
-5.875695976125398090e+01 -6.193159492433666813e+00 1.360718015218350629e+01 -6.193159492433666813e+00 9.642341086349572876e+00 4.430180186643752904e+01 1.360718015218350629e+01 4.430180186643752904e+01 -1.323106920099875694e+01
-4.588545333999931586e+01 4.035128157071289912e-01 6.390586701045831930e+00 4.035128157071289912e-01 -6.798387104807655845e+00 3.704299027735433469e+01 6.390586701045831930e+00 3.704299027735433469e+01 -1.457816992538373491e+01
-4.860579955574770850e+01 2.109141159797395915e+01 -1.378777631081437605e+01 2.109141159797395915e+01 -4.841400621032163087e+01 8.504982871388870436e+00 -1.378777631081437605e+01 8.504982871388870436e+00 -4.180068170321435161e+01
-4.824442459274790451e+01 9.838748447149070486e+00 -8.497012758125956466e+00 9.838748447149070486e+00 1.718423883885951398e+01 5.097004243017412506e+00 -8.497012758125956466e+00 5.097004243017412506e+00 -9.028545682084688551e+00
8.880758330057634709e+00 2.238462237922315623e+01 1.735494274378492108e+01 2.238462237922315623e+01 1.137701259618077287e+01 -1.432223328156515940e+01 1.735494274378492108e+01 -1.432223328156515940e+01 -2.373786986189905335e+01
2.104502458066117399e+01 -6.844607333371125257e+00 4.149400533281998982e+00 -6.844607333371125257e+00 -1.284243082384148771e+01 2.634500329728527745e+01 4.149400533281998982e+00 2.634500329728527745e+01 8.999714717375598028e+00
-4.326335376362798968e+01 -2.686214430498784278e+00 -1.804374554296351008e+01 -2.686214430498784278e+00 -9.677732448662320408e+00 4.747844383419841563e+01 -1.804374554296351008e+01 4.747844383419841563e+01 -5.673320481293887241e+01
-3.033228725817524918e+01 -3.365188798192169628e+01 -4.312983886661799993e+00 -3.365188798192169628e+01 -8.513700396312634666e+01 3.979612181954132666e+01 -4.312983886661799993e+00 3.979612181954132666e+01 -4.224560875783457625e+00
-4.094033694094843412e+00 -1.610921232234105105e+01 1.790235438219986008e+01 -1.610921232234105105e+01 2.954619480153543165e+01 2.759346468044332923e+01 1.790235438219986008e+01 2.759346468044332923e+01 3.621944238968292762e+00
-2.668263778383858664e+01 1.150847523422901197e+01 -6.621024536058798482e+00 1.150847523422901197e+01 -5.914356327750845566e+01 1.080505333273313617e+01 -6.621024536058798482e+00 1.080505333273313617e+01 -6.146686521752364740e+01
-4.642480901138479510e+01 2.683547950564214801e+01 2.823549826029315213e+01 2.683547950564214801e+01 5.904777993200355013e+00 1.176286900418462977e+01 2.823549826029315213e+01 1.176286900418462977e+01 -1.822437081723915497e+01
2.806811931903349233e+01 -1.070869226541442032e+01 -2.120983042873907465e+01 -1.070869226541442032e+01 1.812474437169502295e+01 1.493436885816445958e+01 -2.120983042873907465e+01 1.493436885816445958e+01 -4.979036046732067433e+01
-4.403944930172657735e+01 -1.097157190626378842e+01 -3.284390030083130796e+01 -1.097157190626378842e+01 -8.312802480020952345e+00 -3.003889496897749467e+01 -3.284390030083130796e+01 -3.003889496897749467e+01 -4.559626274906617738e+01
-8.473743735141097133e+00 -1.397273411781494090e+01 -9.773839715567568476e+00 -1.397273411781494090e+01 1.878834382423528737e+01 -3.647122425126898992e+00 -9.773839715567568476e+00 -3.647122425126898992e+00 2.760385688631551915e+01
-5.250266541119577823e+01 -2.641293691391672027e+01 6.472790222781803493e-01 -2.641293691391672027e+01 1.942682646443902073e+01 8.389135907599317932e+00 6.472790222781803493e-01 8.389135907599317932e+00 -9.338517017396631203e+00
-1.691171428187351466e+01 1.856696500671063399e+00 -1.874766206651358047e+01 1.856696500671063399e+00 3.983473386290322882e+00 -2.725369251576656282e+01 -1.874766206651358047e+01 -2.725369251576656282e+01 1.481973752548446477e+01
-6.679789031128379406e+01 -9.440653547391358202e+00 8.014677184364359164e+00 -9.440653547391358202e+00 -2.502904895989141121e+00 -1.122580984262114434e+01 8.014677184364359164e+00 -1.122580984262114434e+01 -1.830325021552805254e+01
-2.038629228047457076e+01 -7.637893535258931443e+00 -1.530127820897924318e+00 -7.637893535258931443e+00 -4.644157975971736363e+01 1.073747134638509237e+01 -1.530127820897924318e+00 1.073747134638509237e+01 -4.445700707443410948e+01
-6.915388479708741443e+01 -1.675469566915806396e+01 -2.699130268537408028e+01 -1.675469566915806396e+01 -5.642267273269199279e+01 -3.164876749291792635e+01 -2.699130268537408028e+01 -3.164876749291792635e+01 -2.868679683752857201e+01
-4.067594841318172172e+01 3.084974756221114944e+01 -9.557521813508156328e+00 3.084974756221114944e+01 -2.400791921161466291e+01 -5.943079119998674997e+00 -9.557521813508156328e+00 -5.943079119998674997e+00 -7.844942105296554224e+00
-5.069271676626113532e+01 2.947122432339571496e+00 -1.761498194622036717e+00 2.947122432339571496e+00 -1.043592930596425994e+01 -3.215711263227131411e+01 -1.761498194622036717e+00 -3.215711263227131411e+01 -1.867327970570081419e+01