1.383000000000000007e+01 0.000000000000000000e+00 0.000000000000000000e+00 7.099999999999999367e-02 1.549200000000000088e+01 0.000000000000000000e+00 3.799999999999999906e-02 -1.000000000000000021e-03 1.245599999999999952e+01
1.381499999999999950e+01 0.000000000000000000e+00 0.000000000000000000e+00 8.200000000000000344e-02 1.547000000000000064e+01 0.000000000000000000e+00 -2.400000000000000050e-02 -1.700000000000000122e-02 1.254400000000000048e+01
1.379299999999999926e+01 0.000000000000000000e+00 0.000000000000000000e+00 2.100000000000000130e-02 1.555599999999999916e+01 0.000000000000000000e+00 1.899999999999999953e-02 -2.000000000000000042e-02 1.251900000000000013e+01
1.374600000000000044e+01 0.000000000000000000e+00 0.000000000000000000e+00 -2.699999999999999969e-02 1.550799999999999912e+01 0.000000000000000000e+00 5.299999999999999850e-02 -3.099999999999999978e-02 1.241900000000000048e+01
1.375600000000000023e+01 0.000000000000000000e+00 0.000000000000000000e+00 -4.100000000000000172e-02 1.543800000000000061e+01 0.000000000000000000e+00 -4.000000000000000083e-02 2.599999999999999881e-02 1.251099999999999923e+01
1.377500000000000036e+01 0.000000000000000000e+00 0.000000000000000000e+00 -3.500000000000000333e-02 1.540199999999999925e+01 0.000000000000000000e+00 -2.000000000000000042e-02 -2.000000000000000042e-02 1.250300000000000011e+01
1.369299999999999962e+01 0.000000000000000000e+00 0.000000000000000000e+00 -2.100000000000000130e-02 1.547199999999999953e+01 0.000000000000000000e+00 1.700000000000000122e-02 1.600000000000000033e-02 1.250099999999999945e+01
1.378500000000000014e+01 0.000000000000000000e+00 0.000000000000000000e+00 -1.000000000000000021e-02 1.543500000000000050e+01 0.000000000000000000e+00 -4.000000000000000083e-03 -1.200000000000000025e-02 1.245500000000000007e+01
1.378599999999999959e+01 0.000000000000000000e+00 0.000000000000000000e+00 3.200000000000000067e-02 1.546899999999999942e+01 0.000000000000000000e+00 5.700000000000000205e-02 8.000000000000000167e-03 1.250200000000000067e+01
1.378200000000000003e+01 0.000000000000000000e+00 0.000000000000000000e+00 -1.700000000000000122e-02 1.551600000000000001e+01 0.000000000000000000e+00 1.499999999999999944e-02 -1.299999999999999940e-02 1.249200000000000088e+01
1.368599999999999994e+01 0.000000000000000000e+00 0.000000000000000000e+00 6.000000000000000125e-03 1.546299999999999919e+01 0.000000000000000000e+00 -1.899999999999999953e-02 6.000000000000000125e-03 1.245599999999999952e+01
1.378599999999999959e+01 0.000000000000000000e+00 0.000000000000000000e+00 3.899999999999999994e-02 1.548499999999999943e+01 0.000000000000000000e+00 3.099999999999999978e-02 -3.000000000000000062e-03 1.249300000000000033e+01
1.369500000000000028e+01 0.000000000000000000e+00 0.000000000000000000e+00 -2.000000000000000042e-02 1.546700000000000053e+01 0.000000000000000000e+00 0.000000000000000000e+00 3.899999999999999994e-02 1.243099999999999916e+01
1.367699999999999960e+01 0.000000000000000000e+00 0.000000000000000000e+00 1.299999999999999940e-02 1.545199999999999996e+01 0.000000000000000000e+00 -2.000000000000000042e-03 -3.200000000000000067e-02 1.249399999999999977e+01
1.378200000000000003e+01 0.000000000000000000e+00 0.000000000000000000e+00 5.899999999999999689e-02 1.548799999999999955e+01 0.000000000000000000e+00 -1.600000000000000033e-02 -4.399999999999999745e-02 1.253400000000000070e+01
1.370899999999999963e+01 0.000000000000000000e+00 0.000000000000000000e+00 1.899999999999999953e-02 1.542300000000000004e+01 0.000000000000000000e+00 -2.999999999999999889e-02 -5.600000000000000117e-02 1.251200000000000045e+01
1.371000000000000085e+01 0.000000000000000000e+00 0.000000000000000000e+00 -3.500000000000000333e-02 1.540300000000000047e+01 0.000000000000000000e+00 -2.599999999999999881e-02 2.999999999999999889e-02 1.249699999999999989e+01
1.364700000000000024e+01 0.000000000000000000e+00 0.000000000000000000e+00 3.400000000000000244e-02 1.550600000000000023e+01 0.000000000000000000e+00 1.400000000000000029e-02 -6.099999999999999867e-02 1.245800000000000018e+01
1.371100000000000030e+01 0.000000000000000000e+00 0.000000000000000000e+00 3.799999999999999906e-02 1.540700000000000003e+01 0.000000000000000000e+00 8.999999999999999320e-03 5.899999999999999689e-02 1.248099999999999987e+01
1.378700000000000081e+01 0.000000000000000000e+00 0.000000000000000000e+00 -6.199999999999999956e-02 1.547100000000000009e+01 0.000000000000000000e+00 -1.700000000000000122e-02 1.200000000000000025e-02 1.245199999999999996e+01
1.367800000000000082e+01 0.000000000000000000e+00 0.000000000000000000e+00 -9.099999999999999756e-02 1.541399999999999970e+01 0.000000000000000000e+00 4.200000000000000261e-02 -1.499999999999999944e-02 1.246799999999999997e+01
1.369100000000000072e+01 0.000000000000000000e+00 0.000000000000000000e+00 -6.099999999999999867e-02 1.544599999999999973e+01 0.000000000000000000e+00 -1.000000000000000021e-03 -2.000000000000000042e-03 1.247700000000000031e+01
1.376099999999999923e+01 0.000000000000000000e+00 0.000000000000000000e+00 -2.000000000000000042e-03 1.548900000000000077e+01 0.000000000000000000e+00 -5.000000000000000104e-03 -3.500000000000000333e-02 1.253700000000000081e+01
1.373099999999999987e+01 0.000000000000000000e+00 0.000000000000000000e+00 -8.999999999999999320e-03 1.544400000000000084e+01 0.000000000000000000e+00 1.899999999999999953e-02 7.000000000000000146e-03 1.243200000000000038e+01
1.379400000000000048e+01 0.000000000000000000e+00 0.000000000000000000e+00 -8.599999999999999312e-02 1.543099999999999916e+01 0.000000000000000000e+00 -1.059999999999999970e-01 1.400000000000000029e-02 1.250600000000000023e+01
1.367699999999999960e+01 0.000000000000000000e+00 0.000000000000000000e+00 -3.500000000000000333e-02 1.536800000000000033e+01 0.000000000000000000e+00 -0.000000000000000000e+00 1.000000000000000021e-02 1.247100000000000009e+01
1.377500000000000036e+01 0.000000000000000000e+00 0.000000000000000000e+00 -2.299999999999999961e-02 1.539700000000000024e+01 0.000000000000000000e+00 -3.400000000000000244e-02 -5.000000000000000104e-03 1.246499999999999986e+01
