7.089969999999999883e-01 1.473060999999999954e+00 4.450632999999999839e+00 6.046369999999999800e-01 1.569261000000000017e+00 8.514863000000000071e+00 6.046219999999999928e-01 1.615965000000000096e+00 2.875469999999999970e-01 6.826179999999999470e-01 9.294131000000000142e+00 4.461312999999999640e+00 6.526859999999999884e-01 6.180091000000000001e+00 4.521442999999999657e+00 6.820770000000000444e-01 9.305861000000000161e+00 8.671542999999999779e+00 6.553889999999999993e-01 6.196251000000000175e+00 8.691212999999999411e+00 7.263720000000000176e-01 9.334284999999999499e+00 4.346470000000000056e-01 6.316429999999999545e-01 6.047704999999999664e+00 4.311470000000000025e-01 6.787609999999999477e-01 1.384394099999999916e+01 4.367573000000000150e+00 7.187590000000000368e-01 1.396564099999999975e+01 8.599183000000000021e+00 6.888720000000000399e-01 1.388411499999999954e+01 2.792470000000000230e-01 3.050985999999999976e+00 2.631740999999999886e+00 1.787233000000000072e+00 3.902556000000000136e+00 1.289201000000000041e+00 3.762612999999999985e+00 2.920545999999999864e+00 2.323500999999999816e+00 4.432653000000000176e+00 2.992966000000000015e+00 2.636550999999999867e+00 5.883512999999999771e+00 1.584905999999999926e+00 2.597100999999999882e+00 3.891163000000000149e+00 3.990725999999999996e+00 1.489421000000000106e+00 2.258532999999999902e+00 5.247416000000000302e+00 1.672990999999999895e+00 4.376032999999999618e+00 3.838546000000000014e+00 1.294051000000000062e+00 8.045652999999999722e+00 2.954126000000000030e+00 2.369221000000000021e+00 8.538163000000000835e+00 3.076125999999999916e+00 2.665350999999999804e+00 1.005285300000000070e+01 1.494466000000000072e+00 2.674751000000000101e+00 7.941873000000000182e+00 3.944335999999999842e+00 1.630311000000000066e+00 6.472133000000000358e+00 5.233515999999999835e+00 1.606050999999999895e+00 8.575623000000000218e+00 3.838226000000000138e+00 1.168501000000000012e+00 1.213335299999999961e+01 2.914788000000000157e+00 2.230455000000000076e+00 3.220470000000000277e-01 1.637296000000000085e+00 2.585300999999999849e+00 1.214055300000000059e+01 3.922455999999999943e+00 1.563061000000000034e+00 1.065985300000000002e+01 5.239057999999999993e+00 1.506634999999999946e+00 2.683470000000000022e-01 3.063416000000000139e+00 5.120851000000000042e+00 1.870603000000000016e+00 3.166545999999999861e+00 1.046194099999999949e+01 1.769263000000000030e+00 3.951146000000000047e+00 9.102211000000000496e+00 3.890782999999999880e+00 3.490305999999999909e+00 7.807320999999999955e+00 4.123772999999999911e+00 2.973866000000000120e+00 1.007144100000000009e+01 4.484342999999999968e+00 3.911725999999999814e+00 6.546630999999999645e+00 3.902902999999999789e+00 2.952776000000000067e+00 5.417741000000000362e+00 4.460893000000000441e+00 3.064265999999999934e+00 5.132780999999999594e+00 5.879662999999999862e+00 3.070845999999999965e+00 1.032914099999999991e+01 5.997602999999999795e+00 1.588686000000000043e+00 1.038544100000000014e+01 3.827573000000000114e+00 1.563836000000000004e+00 5.107211000000000389e+00 3.894322999999999979e+00 4.032026000000000110e+00 6.225621000000000294e+00 2.447093000000000185e+00 4.052946000000000382e+00 9.422050999999999732e+00 2.387932999999999861e+00 5.313405999999999629e+00 9.380871000000000848e+00 4.478602999999999668e+00 5.218665999999999805e+00 6.152681000000000289e+00 4.510572999999999944e+00 3.940046000000000159e+00 9.012401000000000550e+00 8.037622999999999962e+00 3.459325999999999901e+00 7.766091000000000300e+00 8.325322999999999141e+00 2.964945999999999859e+00 1.004144100000000073e+01 8.597113000000000227e+00 3.959366000000000163e+00 6.498110999999999748e+00 8.052792999999999424e+00 3.015985999999999834e+00 5.447550999999999810e+00 8.645353000000000065e+00 3.122996000000000105e+00 5.106950999999999574e+00 1.020485299999999995e+01 3.051406000000000063e+00 1.032374100000000006e+01 1.010725300000000004e+01 1.581766000000000005e+00 1.035384099999999918e+01 8.022793000000000063e+00 1.633345999999999965e+00 5.183520999999999823e+00 7.994552999999999798e+00 4.025085999999999942e+00 6.118991000000000291e+00 6.575662999999999592e+00 4.013976000000000433e+00 9.335760999999999754e+00 6.583652999999999977e+00 5.282195999999999891e+00 9.367321000000000453e+00 8.643712999999999980e+00 5.354815999999999576e+00 6.252881000000000355e+00 8.665573000000000192e+00 3.871096000000000092e+00 8.976440999999999448e+00 1.210835299999999926e+01 3.283027999999999835e+00 7.802224999999999966e+00 3.554700000000000221e-02 3.014768000000000114e+00 1.010251500000000036e+01 2.928470000000000240e-01 3.872736000000000178e+00 6.520901000000000280e+00 1.218955300000000008e+01 3.012108000000000008e+00 5.428684999999999761e+00 3.874469999999999859e-01 1.732925999999999966e+00 1.031554099999999963e+01 1.221805299999999939e+01 1.710406000000000093e+00 5.128091000000000399e+00 1.224705299999999930e+01 4.030555999999999806e+00 6.140741000000000227e+00 1.078595299999999924e+01 4.002576000000000356e+00 9.266560999999999382e+00 1.070885299999999951e+01 5.294287999999999883e+00 9.233275000000000787e+00 3.090470000000000161e-01 5.237637999999999572e+00 6.291694999999999816e+00 3.513470000000000204e-01 3.130765999999999938e+00 1.295614100000000057e+01 1.842413000000000078e+00 3.527861999999999831e+00 3.025900000000000117e-02 4.212762999999999813e+00 3.908366000000000007e+00 1.424324099999999937e+01 3.837432999999999872e+00 3.031455999999999928e+00 1.319114100000000001e+01 4.450313000000000407e+00 3.151276000000000188e+00 1.289274099999999912e+01 5.960713000000000150e+00 1.644006000000000078e+00 1.288644099999999959e+01 3.844583000000000084e+00 4.106685999999999837e+00 1.396974100000000085e+01 2.434473000000000109e+00 5.336905999999999928e+00 1.387254100000000001e+01 4.496732999999999869e+00 3.412021999999999888e+00 4.245899999999999674e-02 8.354893000000000569e+00 3.916926000000000130e+00 1.427764099999999914e+01 8.039742999999999640e+00 3.000255999999999812e+00 1.316154099999999971e+01 8.636462999999999113e+00 3.114695999999999909e+00 1.282144100000000009e+01 1.008815300000000015e+01 1.610965999999999898e+00 1.284774099999999919e+01 8.040523000000000309e+00 4.054546000000000205e+00 1.398404099999999950e+01 6.560662999999999911e+00 5.311735999999999791e+00 1.390824100000000030e+01 8.590652999999999651e+00 3.360958000000000112e+00 1.541321499999999922e+01 1.134699999999999945e-02 3.922546000000000088e+00 1.422164099999999998e+01 1.211985300000000088e+01 2.981107999999999869e+00 1.325871500000000047e+01 3.593470000000000275e-01 1.714396000000000031e+00 1.288754100000000058e+01 1.220165300000000030e+01 4.100696000000000119e+00 1.390544099999999972e+01 1.067735300000000009e+01 5.314408000000000243e+00 1.397501500000000085e+01 2.927469999999999795e-01 7.622906000000000404e+00 2.579321000000000197e+00 1.709492999999999929e+00 8.441525999999999641e+00 1.235681000000000029e+00 3.811732999999999816e+00 7.508645999999999709e+00 2.182040999999999897e+00 4.438362999999999836e+00 7.630945999999999785e+00 2.574081000000000063e+00 5.865083000000000268e+00 6.202425999999999995e+00 2.609980999999999884e+00 3.793143000000000153e+00 8.543445999999999430e+00 1.513981000000000021e+00 2.323052999999999813e+00 9.801116000000000383e+00 1.557620999999999922e+00 4.419552999999999621e+00 8.550955999999999335e+00 1.294410999999999978e+00 7.946633000000000280e+00 7.532765999999999629e+00 2.220490999999999993e+00 8.592003000000000057e+00 7.646226000000000411e+00 2.621510999999999925e+00 1.002014299999999913e+01 6.138116000000000128e+00 2.576601000000000141e+00 7.974503000000000341e+00 8.546746000000000620e+00 1.544160999999999895e+00 6.503422999999999732e+00 9.893625999999999365e+00 1.578060999999999936e+00 8.584882999999999598e+00 8.504466000000000747e+00 1.220131000000000077e+00 1.210695300000000074e+01 7.492557999999999829e+00 2.266364999999999963e+00 2.332470000000000099e-01 6.112975999999999743e+00 2.558540999999999954e+00 1.207415300000000080e+01 8.620006000000000057e+00 1.686571000000000042e+00 1.067425300000000021e+01 9.788577999999999335e+00 1.634044999999999970e+00 2.735469999999999846e-01 7.690675999999999846e+00 5.106730999999999909e+00 1.812912999999999997e+00 7.840215999999999852e+00 1.030634099999999975e+01 1.753193000000000001e+00 8.603256000000000014e+00 9.049421000000000603e+00 3.951572999999999780e+00 8.102575999999999112e+00 7.826111000000000040e+00 4.218943000000000332e+00 7.644396000000000413e+00 1.006344099999999919e+01 4.493513000000000090e+00 8.490225999999999829e+00 6.556830999999999854e+00 3.887493000000000087e+00 7.542086000000000290e+00 5.465021000000000129e+00 4.510633000000000337e+00 7.768665999999999627e+00 5.086460999999999899e+00 5.852522999999999698e+00 7.729826000000000086e+00 1.038094099999999997e+01 5.948312999999999739e+00 6.320266000000000162e+00 1.035374099999999942e+01 3.858172999999999853e+00 6.208216000000000179e+00 5.216090999999999589e+00 3.932752999999999943e+00 8.636836000000000624e+00 6.256670999999999871e+00 2.379843000000000153e+00 8.712986000000000786e+00 9.290770999999999447e+00 2.440373000000000125e+00 9.941216000000000719e+00 9.318270999999999304e+00 4.515913000000000288e+00 9.912855999999999668e+00 6.154601000000000433e+00 4.550862999999999658e+00 8.558296000000000348e+00 9.063100999999999630e+00 8.031513000000000346e+00 8.087075999999999709e+00 7.780611000000000388e+00 8.375612999999999531e+00 7.633346000000000409e+00 1.011364099999999944e+01 8.599332999999999672e+00 8.577235999999999194e+00 6.503480999999999845e+00 8.012543000000000859e+00 7.644295999999999758e+00 5.418270999999999837e+00 8.645243000000000677e+00 7.708835999999999800e+00 5.105090999999999823e+00 1.008705299999999916e+01 7.791896000000000377e+00 1.037564099999999989e+01 1.013045299999999926e+01 6.272135999999999711e+00 1.043654100000000007e+01 8.017652999999999253e+00 6.294016000000000055e+00 5.160550999999999888e+00 8.071073000000000164e+00 8.715016000000000318e+00 6.143890999999999991e+00 6.614213000000000342e+00 8.713886000000000465e+00 9.286101000000000383e+00 6.582823000000000313e+00 9.976186000000000220e+00 9.337870999999999810e+00 8.631963000000000719e+00 9.952536000000000271e+00 6.181790999999999592e+00 8.614713000000000065e+00 8.627115999999999119e+00 9.012250999999999124e+00 1.214015299999999975e+01 8.212265999999999622e+00 7.735241000000000255e+00 1.240255299999999927e+01 7.641297999999999924e+00 1.006161499999999975e+01 3.165470000000000228e-01 8.584606000000000847e+00 6.429810999999999943e+00 1.215255299999999927e+01 7.544228000000000378e+00 5.418314999999999770e+00 3.484470000000000067e-01 6.261205999999999605e+00 1.037024100000000004e+01 1.223755300000000013e+01 6.214966000000000435e+00 5.064340999999999759e+00 1.216995299999999958e+01 8.771145999999999887e+00 6.108201000000000214e+00 1.068645300000000020e+01 8.724785999999999930e+00 9.358911000000000868e+00 1.070305300000000059e+01 9.924528000000000461e+00 9.339914999999999523e+00 3.513470000000000204e-01 9.900527999999999551e+00 6.115944999999999965e+00 3.749469999999999748e-01 7.801376000000000310e+00 1.278144099999999916e+01 1.772602999999999929e+00 8.106315999999999633e+00 1.546444100000000077e+01 4.172963000000000200e+00 8.544145999999999574e+00 1.421174099999999996e+01 3.821743000000000112e+00 7.641685999999999979e+00 1.317184100000000058e+01 4.469793000000000127e+00 7.637266000000000332e+00 1.287574099999999966e+01 5.907162999999999720e+00 6.249086000000000141e+00 1.286104100000000017e+01 3.843672999999999895e+00 8.679895999999999390e+00 1.393814099999999989e+01 2.351623000000000019e+00 9.913895999999999376e+00 1.389974100000000057e+01 4.523393000000000441e+00 8.145111999999999242e+00 2.245899999999999980e-02 8.396853000000000122e+00 8.554145999999999361e+00 1.419504099999999980e+01 7.996922999999999782e+00 7.647826000000000235e+00 1.313694100000000020e+01 8.633732999999999436e+00 7.756096000000000323e+00 1.281074100000000016e+01 1.009205299999999994e+01 6.212735999999999592e+00 1.286704100000000039e+01 7.972432999999999659e+00 8.652215999999999241e+00 1.393374099999999949e+01 6.564883000000000024e+00 9.910256000000000398e+00 1.392924099999999932e+01 8.570282999999999873e+00 8.165226000000000539e+00 1.547574099999999930e+01 1.239955299999999916e+01 8.544316000000000244e+00 1.417094099999999912e+01 1.208595299999999995e+01 7.597407999999999717e+00 1.310881499999999988e+01 3.312470000000000137e-01 6.286755999999999567e+00 1.284874100000000041e+01 1.219195299999999982e+01 8.714016000000000872e+00 1.386854100000000045e+01 1.067845299999999931e+01 9.904427999999999344e+00 1.387111499999999964e+01 3.384469999999999978e-01 1.219220600000000054e+01 2.578660999999999870e+00 1.773203000000000085e+00 1.303010599999999997e+01 1.170741000000000032e+00 3.857232999999999912e+00 1.210980600000000074e+01 2.287411000000000083e+00 4.474933000000000050e+00 1.228840600000000016e+01 2.515101000000000031e+00 5.902013000000000176e+00 1.063870600000000088e+01 2.604811000000000210e+00 3.839023000000000074e+00 1.316070599999999935e+01 1.619180999999999981e+00 2.372152999999999956e+00 1.305800600000000067e+01 1.253511000000000042e+00 7.976022999999999641e+00 1.213710599999999928e+01 2.304040999999999784e+00 8.591253000000000029e+00 1.232240600000000086e+01 2.602081000000000088e+00 1.001106300000000005e+01 1.084110599999999991e+01 2.636010999999999882e+00 8.004282999999999149e+00 1.318240600000000029e+01 1.456641000000000075e+00 6.488893000000000022e+00 1.312970600000000054e+01 1.193021000000000109e+00 1.214575299999999913e+01 1.212538799999999917e+01 2.164864999999999817e+00 2.671470000000000233e-01 1.085220600000000069e+01 2.601930999999999994e+00 1.211985300000000088e+01 1.325130599999999959e+01 1.538721000000000005e+00 1.062155300000000047e+01 1.234620600000000046e+01 5.074500999999999706e+00 1.806693000000000104e+00 1.232870600000000039e+01 1.030874099999999949e+01 1.790292999999999912e+00 1.310010600000000025e+01 9.049141000000000545e+00 3.886512999999999884e+00 1.265390599999999921e+01 7.766511000000000386e+00 4.306962999999999653e+00 1.218680600000000069e+01 1.006994100000000003e+01 4.496653000000000233e+00 1.304830600000000018e+01 6.518780999999999715e+00 3.978663000000000061e+00 1.223850599999999922e+01 5.382960999999999885e+00 4.538802999999999699e+00 1.232720600000000033e+01 5.092201000000000199e+00 5.982892999999999795e+00 1.232340600000000030e+01 1.038744100000000081e+01 6.034832999999999892e+00 1.085560599999999987e+01 1.040604100000000010e+01 3.926813000000000109e+00 1.080490600000000079e+01 5.118451000000000306e+00 3.893362999999999907e+00 1.328220600000000040e+01 6.135970999999999620e+00 2.503252999999999950e+00 1.326060599999999923e+01 9.370720999999999634e+00 2.462092999999999865e+00 1.308660599999999974e+01 9.030101000000000155e+00 8.059013000000000204e+00 1.275190599999999996e+01 7.767971000000000181e+00 8.422532999999999603e+00 1.222300599999999982e+01 1.006284100000000059e+01 8.636582999999999899e+00 1.326080600000000054e+01 6.429250999999999827e+00 8.091882999999999271e+00 1.225470600000000054e+01 5.433240999999999765e+00 8.650202999999999420e+00 1.232340600000000030e+01 5.106301000000000201e+00 1.014315299999999986e+01 1.230610599999999977e+01 1.030024099999999976e+01 1.007795300000000083e+01 1.087070600000000020e+01 1.039124100000000084e+01 8.001352999999999938e+00 1.090870600000000046e+01 5.166271000000000058e+00 8.010873000000000133e+00 1.333490600000000015e+01 6.118551000000000073e+00 6.639253000000000071e+00 1.324290599999999962e+01 9.272890999999999551e+00 6.552163000000000181e+00 1.320700599999999980e+01 8.989490999999999232e+00 1.216655300000000040e+01 1.287848800000000082e+01 7.732865000000000322e+00 1.021470000000000017e-01 1.218218800000000002e+01 9.908345000000000624e+00 3.553470000000000240e-01 1.324030600000000035e+01 6.409841000000000122e+00 1.226035300000000028e+01 1.219268800000000041e+01 5.405054999999999943e+00 4.019469999999999987e-01 1.089000599999999963e+01 1.035354099999999988e+01 1.220295300000000083e+01 1.086880599999999930e+01 5.074141000000000012e+00 1.224675300000000000e+01 1.332800600000000024e+01 6.109900999999999804e+00 1.077515299999999954e+01 1.328040599999999927e+01 9.355591000000000435e+00 1.079145300000000063e+01 1.228530600000000028e+01 1.293544100000000086e+01 1.715543000000000040e+00 1.271990599999999993e+01 1.536674099999999932e+01 4.188932999999999574e+00 1.317970599999999948e+01 1.413684100000000043e+01 3.794833000000000123e+00 1.220910600000000024e+01 1.314404099999999964e+01 4.479693000000000147e+00 1.236630599999999980e+01 1.283394099999999938e+01 5.936383000000000187e+00 1.085240600000000022e+01 1.291244099999999939e+01 3.950712999999999919e+00 1.324180600000000041e+01 1.390154099999999993e+01 2.339443000000000161e+00 1.259845199999999998e+01 7.759000000000000272e-03 8.334443000000000268e+00 1.319090600000000002e+01 1.422094099999999983e+01 8.013052999999999315e+00 1.220870599999999939e+01 1.321934100000000001e+01 8.639492999999999867e+00 1.236590600000000073e+01 1.285424100000000003e+01 1.010585299999999975e+01 1.088570600000000077e+01 1.289924099999999996e+01 8.002563000000000315e+00 1.333690600000000082e+01 1.387034099999999981e+01 6.525782999999999667e+00 1.278500599999999920e+01 1.544734099999999977e+01 1.232595300000000016e+01 1.321640599999999921e+01 1.413104099999999974e+01 1.208905299999999983e+01 1.215608800000000045e+01 1.319681500000000085e+01 2.532469999999999999e-01 1.085570599999999963e+01 1.289314099999999996e+01 1.213035299999999950e+01 1.333560600000000029e+01 1.387494099999999975e+01 1.066105300000000078e+01 7.162619999999999543e-01 1.288591000000000042e+00 1.769673000000000052e+00 1.649366000000000110e+00 2.336571000000000176e+00 2.387952999999999992e+00 7.173100000000000032e-01 1.275730999999999948e+00 5.925672999999999746e+00 1.640535999999999994e+00 2.317461000000000215e+00 6.531902999999999793e+00 7.511539999999999884e-01 1.240450999999999970e+00 1.003157299999999985e+01 1.644055999999999962e+00 2.444011000000000156e+00 1.069885299999999972e+01 7.126989999999999714e-01 6.458641000000000076e+00 1.960132999999999903e+00 1.084135999999999989e+00 7.749680999999999820e+00 2.252762999999999849e+00 1.722795999999999994e+00 5.418220999999999954e+00 2.471182999999999907e+00 6.921910000000000007e-01 9.034520999999999802e+00 1.809233000000000091e+00 1.673966000000000065e+00 1.009114100000000036e+01 2.396033000000000079e+00 7.858770000000000477e-01 6.585830999999999769e+00 5.950632999999999839e+00 1.227065999999999990e+00 7.804661000000000293e+00 6.360253000000000156e+00 1.788715999999999973e+00 5.546051000000000286e+00 6.570503000000000426e+00 7.070370000000000266e-01 9.040400999999999243e+00 5.951493000000000144e+00 1.627475999999999923e+00 1.015984100000000012e+01 6.564602999999999966e+00 8.946619999999999573e-01 6.489990999999999843e+00 1.016975300000000004e+01 1.308775999999999939e+00 7.747990999999999850e+00 1.050725300000000040e+01 1.812246000000000024e+00 5.479421000000000319e+00 1.076425300000000007e+01 8.153230000000000199e-01 8.939401000000000153e+00 1.009015300000000082e+01 1.777825999999999906e+00 9.971940999999999278e+00 1.069055299999999953e+01 8.311549999999999772e-01 1.420654099999999964e+01 1.804353000000000096e+00 1.252456000000000014e+00 1.547524100000000047e+01 2.124102999999999852e+00 1.789006000000000096e+00 1.320704100000000025e+01 2.376393000000000200e+00 8.079210000000000003e-01 1.423784099999999953e+01 5.959613000000000049e+00 1.264556000000000013e+00 1.548344099999999912e+01 6.192442999999999920e+00 1.775886000000000076e+00 1.323814100000000060e+01 6.500923000000000229e+00 8.711870000000000447e-01 1.422384100000000018e+01 1.006745300000000043e+01 1.144331999999999905e+00 4.205899999999999916e-02 1.034585299999999997e+01 1.800575999999999954e+00 1.323844099999999990e+01 1.072735300000000080e+01 5.451205999999999996e+00 1.280670999999999893e+00 1.713532999999999973e+00 6.288725999999999594e+00 2.372761000000000120e+00 2.317502999999999869e+00 5.269186000000000369e+00 1.343631000000000020e+00 5.933163000000000409e+00 6.262386000000000230e+00 2.324200999999999961e+00 6.503372999999999848e+00 5.327195999999999820e+00 1.258601000000000081e+00 1.003875299999999982e+01 6.244936000000000043e+00 2.289521000000000139e+00 1.061785300000000021e+01 5.435895999999999617e+00 6.560651000000000010e+00 1.799512999999999918e+00 5.921585999999999572e+00 7.788171000000000177e+00 2.173573000000000199e+00 6.379716000000000165e+00 5.506731000000000265e+00 2.451112999999999875e+00 5.432765999999999984e+00 8.994111000000000189e+00 1.754153000000000073e+00 6.429756000000000249e+00 9.990740999999999872e+00 2.386582999999999899e+00 5.372425999999999924e+00 6.483100999999999559e+00 6.025922999999999696e+00 5.853396000000000043e+00 7.745841000000000420e+00 6.364633000000000429e+00 6.389776000000000344e+00 5.499770999999999965e+00 6.608373000000000275e+00 5.375835999999999615e+00 8.953170999999999324e+00 5.987173000000000300e+00 6.356995999999999647e+00 1.006934099999999965e+01 6.612162999999999791e+00 5.383096000000000103e+00 6.519351000000000340e+00 1.016445299999999996e+01 5.896836000000000411e+00 7.775201000000000029e+00 1.045915300000000059e+01 6.390515999999999863e+00 5.511211000000000304e+00 1.070195299999999961e+01 5.409285999999999817e+00 9.048851000000000866e+00 1.006165299999999974e+01 6.405876000000000126e+00 1.002064099999999947e+01 1.070575299999999963e+01 5.429926000000000030e+00 1.429344099999999962e+01 1.778653000000000040e+00 5.881321999999999939e+00 5.445900000000000046e-02 2.132013000000000158e+00 6.459976000000000163e+00 1.323134100000000046e+01 2.445092999999999961e+00 5.373345999999999734e+00 1.427314100000000074e+01 5.864222999999999963e+00 5.758052000000000170e+00 5.305900000000000200e-02 6.158782999999999674e+00 6.400496000000000407e+00 1.324924099999999960e+01 6.515272999999999648e+00 5.467745999999999995e+00 1.418324100000000065e+01 1.004485299999999981e+01 5.833765999999999785e+00 1.547694100000000006e+01 1.038165300000000002e+01 6.378155999999999715e+00 1.318464099999999917e+01 1.066315299999999944e+01 9.887076000000000420e+00 1.368481000000000058e+00 1.662922999999999929e+00 1.080230599999999974e+01 2.368380999999999847e+00 2.328983000000000025e+00 9.953435999999999950e+00 1.226631000000000027e+00 5.888272999999999868e+00 1.090090600000000087e+01 2.257160999999999973e+00 6.548903000000000141e+00 9.973796000000000106e+00 1.301560999999999968e+00 1.001248299999999958e+01 1.095780599999999971e+01 2.260851000000000166e+00 1.068565300000000029e+01 1.005870600000000081e+01 6.513161000000000200e+00 1.847663000000000055e+00 1.060250599999999999e+01 7.763391000000000375e+00 2.119912999999999936e+00 1.095050600000000074e+01 5.466331000000000273e+00 2.427413000000000043e+00 1.007290599999999969e+01 9.016880999999999702e+00 1.869162999999999908e+00 1.097800600000000060e+01 1.004454100000000061e+01 2.477713000000000054e+00 1.002940599999999982e+01 6.453851000000000226e+00 6.013853000000000115e+00 1.050570599999999999e+01 7.750710999999999906e+00 6.266993000000000258e+00 1.099930600000000069e+01 5.411800999999999640e+00 6.601083000000000034e+00 9.978645999999999461e+00 8.988291000000000253e+00 5.942763000000000240e+00 1.096360600000000041e+01 1.005374100000000048e+01 6.555292999999999815e+00 1.008360599999999963e+01 6.447530999999999679e+00 1.011935300000000026e+01 1.054260599999999926e+01 7.723161000000000165e+00 1.045545300000000033e+01 1.103760600000000025e+01 5.395770999999999873e+00 1.075015299999999918e+01 1.013240599999999958e+01 8.996491000000000682e+00 1.010945300000000024e+01 1.101700600000000030e+01 1.001784100000000066e+01 1.071565299999999965e+01 9.983515999999999835e+00 1.430214100000000066e+01 1.802983000000000002e+00 1.037175200000000075e+01 9.035899999999999488e-02 1.984043000000000001e+00 1.091110600000000019e+01 1.324264100000000077e+01 2.398153000000000201e+00 9.988746000000000791e+00 1.421224100000000057e+01 5.924203000000000330e+00 1.039555200000000035e+01 1.758999999999999930e-03 6.179962999999999873e+00 1.097540599999999955e+01 1.315784099999999945e+01 6.485463000000000200e+00 1.003530600000000028e+01 1.425314099999999939e+01 1.009925299999999915e+01 1.036835199999999979e+01 2.095899999999999846e-02 1.048945299999999925e+01 1.099910599999999938e+01 1.321104099999999981e+01 1.065305299999999988e+01 1.200646000000000102e+00 3.851061000000000067e+00 4.262653000000000247e+00 1.108605999999999980e+00 3.928421000000000163e+00 8.256503000000000370e+00 1.143057999999999907e+00 3.859304999999999986e+00 1.239470000000000016e-01 1.187316000000000038e+00 1.168354099999999995e+01 4.297913000000000316e+00 1.148716000000000070e+00 1.161114099999999993e+01 8.367172999999999305e+00 1.251808000000000032e+00 1.164951499999999918e+01 1.315469999999999973e-01 5.823275999999999897e+00 3.906060999999999783e+00 4.212182999999999566e+00 5.757705999999999769e+00 3.920920999999999879e+00 8.292163000000000395e+00 5.640506000000000242e+00 3.875681000000000154e+00 1.241285300000000014e+01 5.774735999999999869e+00 1.162544100000000036e+01 4.082213000000000314e+00 5.745595999999999925e+00 1.164714099999999952e+01 8.424423000000000883e+00 5.800417999999999630e+00 1.161061499999999924e+01 1.782469999999999888e-01 1.024140599999999957e+01 3.875760999999999790e+00 4.224662999999999613e+00 1.042000600000000077e+01 3.889361000000000068e+00 8.383492999999999640e+00 1.033998799999999996e+01 3.822255000000000180e+00 1.378469999999999973e-01 1.039530599999999971e+01 1.162514099999999928e+01 4.223353000000000357e+00 1.038360600000000034e+01 1.165124100000000062e+01 8.275883000000000322e+00 1.042990600000000079e+01 1.158284100000000016e+01 1.244715300000000013e+01 3.542155999999999860e+00 3.839081000000000188e+00 2.163552999999999837e+00 3.585535999999999834e+00 3.870830999999999911e+00 6.115662999999999627e+00 3.725515999999999828e+00 3.854300999999999977e+00 1.044005300000000069e+01 3.630495999999999945e+00 1.166294100000000000e+01 2.163993000000000055e+00 3.501876000000000211e+00 1.160114100000000015e+01 6.398823000000000150e+00 3.603655999999999970e+00 1.159714100000000059e+01 1.038965299999999914e+01 8.119275999999999271e+00 3.838760999999999868e+00 2.062232999999999983e+00 8.180246000000000350e+00 3.799341000000000079e+00 6.095012999999999792e+00 8.035615999999999204e+00 3.835351000000000177e+00 1.033665300000000009e+01 8.324875999999999721e+00 1.160054099999999977e+01 2.069802999999999837e+00 8.148405999999999594e+00 1.164814100000000074e+01 6.197333000000000425e+00 8.296725999999999601e+00 1.160184100000000029e+01 1.049205300000000030e+01 1.270970600000000061e+01 3.790920999999999985e+00 2.150762999999999980e+00 1.270100599999999957e+01 3.803170999999999857e+00 6.322343000000000046e+00 1.278070600000000034e+01 3.821540999999999855e+00 1.041095299999999924e+01 1.278480599999999967e+01 1.160064099999999954e+01 1.921013000000000082e+00 1.280190600000000067e+01 1.158814100000000025e+01 6.347673000000000343e+00 1.276990600000000065e+01 1.161484100000000019e+01 1.041985299999999981e+01