-1.058588572568326636e+05
-1.058590491223275749e+05
-1.058601255976745597e+05
-1.058582768395995226e+05
-1.058585319786773034e+05
-1.058577445139140327e+05
-1.058584030185828451e+05
-1.058586590646015684e+05
-1.058594297529657633e+05
-1.058589352243780158e+05
-1.058582100191222853e+05
-1.058597854301750194e+05
-1.058605515802128211e+05
-1.058587660037748719e+05
-1.058603235826857417e+05
-1.058593407130492124e+05
-1.058589970756745897e+05
-1.058592447984866012e+05
-1.058580238489520270e+05
-1.058592535897163907e+05
-1.058587091211368534e+05
-1.058581606605756679e+05
-1.058598063790150773e+05
-1.058586374920791131e+05
-1.058588534518367669e+05
-1.058585895721384004e+05
-1.058584265124269878e+05
