-2.094736539805060360e+00 8.690391109980059037e-01 -3.887929962163547692e-01 6.551176538690673956e-01 5.045641247118802797e-01 1.141329242698647217e+00 -1.468058888795124861e-01 -1.383631567309119070e+00 7.830691274877101815e-01 -8.065540999248231868e-01 4.822459189858053219e-01 5.884427727379136774e-01 -2.786947502048175984e-01 5.733992468977144874e-01 3.314028835887264379e-01 -3.927576376187795204e-01 1.797592066010412215e-01 -5.886340628289256083e-01 3.618503525400663001e+00 -7.044370730062864405e-01 8.439384572007868623e-01 -6.217627298005486969e-01 4.851594933290138689e-01 -3.091195934464678885e+00 1.313289264325553818e+00 8.954983358179493536e-01 4.418703400447436813e-01 -1.092122437889201242e-01 1.755214625982497223e+00 1.513409038543846341e+00 3.115107710061845170e-01 -7.571873724855259224e-01 6.031551404635653035e-02 -2.223181665271476148e-01 5.411241862461985130e-01 1.120280133597887806e+00 -2.502038394988844727e-01 -1.836451722402271836e+00 -4.065243535235415484e-01 3.512518016345882454e-01 1.575587574094870214e-01 5.085688753269366202e-01 4.923688671891948698e-01 -9.152989171203833596e-01 -8.057020362667404179e-01 1.409429504341316974e+00 1.241462406253946993e-01 6.300180285131978808e-02 -2.945954819098470789e-01 -9.392189202483459676e-01 -9.515386191743241406e-01 -3.790695974772563259e-01 7.710841862210029429e-01 1.926532385986624796e+00 -1.491136598457825313e+00 -1.066391863765397074e+00 5.273677547549318056e-01 2.162807015847521830e-01 1.137669534156356743e+00 -1.719120448379514610e+00 -9.282068844982908074e-01 4.574594540208666293e-01 1.677378585105606890e+00 -3.356524032449700184e-02 -2.622597432187090405e-01 6.951039677593332522e-01 7.025853643564637929e-01 -1.249029677703763275e+00 3.430206712936527680e-01 6.333707473126544418e-02 -1.206149329855929597e+00 1.491529463053344440e+00 -1.268642568459908748e+00 -1.018326114633250956e+00 2.701298906459607130e-01 -3.353994066729865109e-01 1.125854285712321490e+00 3.889009825580551083e-01 6.182578016813621707e-02 5.445812918426318205e-01 -5.918443425014726644e-01 -1.162964049147961587e+00 1.123752151593889304e+00 1.186477303722186294e+00 8.374135110587157538e-01 -1.045316529410224904e+00 4.268031600535054232e-03 -6.654745724794742801e-01 -7.616688056660876616e-02 -1.001906534267385407e+00 1.286318389934220985e+00 7.665821842134505903e-01 2.204782849528446886e-01 -6.236797444760660003e-01 -1.956158181721760148e+00 5.699339137704848568e-01 -4.074144695115567427e-01 -1.218605297260720172e-01 -9.463645307448561583e-01 -2.754628732639304856e-01 6.851939069152958028e-01 1.045094900299402108e+00 -1.510677498319503743e-02 3.150136422426718652e-01 7.598011561753476029e-01 -2.338639633376071170e-01 -1.404137659377328484e+00 -1.043513671724505043e+00 5.264231313753917063e-02 1.543710520245620943e+00 -1.965767937691736134e-01 7.224615360980881640e-01 3.702440280362944564e-02 1.087690369893416609e+00 -5.437235717571268223e-01 1.185712657578813278e+00 -5.888844882975353690e-01 7.839345608833368784e-02 2.020799834304900233e-01 1.139464164311280614e+00 7.975521527924174237e-01 8.317740529185871923e-01 8.326883372783161485e-01 7.285375675910908677e-02 -7.754946569484475472e-01 -7.415468364419265379e-01 7.212094087550395827e-01 -9.378546927981989967e-01 1.604342794227631430e-01 -1.906123481625945915e-01 -1.184035269737735652e+00 1.287364314786689334e+00 8.951815758822950775e-01 1.099403288423174141e+00 1.300497510820143088e+00 -6.570768346399153970e-01 8.568520810061165394e-01 1.244717423125198258e-01 2.740271691399914222e-01 -8.375945167362324195e-01 2.822670412323979861e-01 -1.048249129918399775e-01 2.828450252708318846e-01 1.016320654001674262e+00 -4.175646714107086876e-01 -8.648050179620051514e-01 -3.918978606505753998e-02 -6.803093247257194776e-01 -3.452667872010187211e-01 9.446532043392441569e-01 1.231617651435604310e+00 1.359501762145853276e-01 -1.840486297816464223e+00 1.348661476101168821e+00 5.155627907243915536e-02 -9.507163803153775294e-01 4.650663204626395153e-01 -7.262549420158167512e-01 2.861010705834328149e-01 6.787903168524687114e-01 3.352466831325818242e-01 3.639947041758966328e-01 1.509706649685550683e+00 1.338039733843259027e+00 1.822027832475162368e-01 6.688848839945041869e-01 -8.371918819478928464e-01 -6.650539399675178265e-01 4.679408140345661660e-02 -2.791786318597698213e-01 -1.233240017664482546e-01 -1.302928746170423757e+00 -2.215308946740850715e-01 4.633128279616968714e-02 9.681834281957361066e-01 8.864094853915086558e-01 1.569501258188372272e+00 6.061134520054782815e-01 -2.119918954689567148e+00 -6.968667162324217179e-02 8.174108410310998440e-01 6.723538166664570770e-02 4.550112493883188280e-01 6.177415241238999322e-01 3.673325105757849207e-01 1.792503338212955155e+00 -1.032215729279281513e+00 2.809496078636544714e-02 -2.220327740526540083e-01 -1.871979228821665231e+00 1.605857174114809327e+00 4.377457760124675579e-01 -1.895068251339210308e+00 -1.012317960269317085e+00 9.941022070865033200e-01 1.076266443382875915e+00 1.011476181024729470e+00 -8.427182115395737139e-01 1.093315429854651688e+00 6.544106004412679756e-01 -1.524968205091849605e+00 3.820865301760923566e-02 8.807062638877095617e-01 -4.241312694274355088e-01 3.929201313520047090e-01 -8.734768354212126829e-01 -3.917147980903596394e-01 8.122861177864091342e-01 -8.745793245479051015e-01 -9.839633180421961667e-01 -6.981167866927712184e-01 2.768461268790436622e-02 -3.747192905687591891e-01 1.179179998126621109e+00 8.043594060849335037e-02 1.490891829416637782e+00 -9.115744167730731318e-02 1.126132993318043063e-01 2.241606192048244128e-01 -7.093386244781297867e-01 -1.969202931799154954e-01 1.837449310511312384e-01 -9.030640646057411236e-02 1.614971735574987910e-01 7.425228272826271958e-01 -4.631503342284716829e-01 -2.941820484873374220e-01 -1.481241964234030650e+00 -1.192908661701450601e+00 3.421773493870410299e-01 -1.294485756911485819e+00 -4.086599119858332907e-01 -5.043044432711248914e-01 1.982680655684699866e-01 4.660536241581849648e-01 -1.250241181613505281e+00 -4.443175162359420116e-01 -3.697483193058227480e-01 5.743670102076189332e-01 -5.899509819769943597e-01 5.966939576851649774e-01 1.691330934673958453e+00 -6.068266760813748745e-02 7.158712839303222886e-01 1.084872440595713972e+00 -1.065237952571228330e+00 -1.869639524751492143e-01 -9.100574657825214464e-01 -5.243281963464062612e-01 -2.657950103577064738e-01 6.596469095723822562e-01 9.943485187897149399e-03 6.071485782237767692e-01 2.588708232837492851e+00 -4.524257478356091267e-01 1.185928630262213845e+00 -1.193613658246550857e+00 2.463816372233691154e-01 7.865303468495417061e-01 -1.180624958222705745e+00 -2.348034445103995560e-02 -9.093493839133724999e-01 2.505339691720824269e-01 4.127032291514968337e-02 -6.212027434857313457e-01 -6.970718902816522844e-01 -8.195854802646736215e-02 -1.294766521399906556e-01 -3.432011627504946705e-01 6.887841956664928489e-01 6.223088321571471626e-01 3.813254835774427254e-01 -1.000570588954350360e-01 1.119221867449224778e-01 -4.697503565890580601e-01 -1.115915428510497048e-01 -2.528284218228761260e-01 1.095457673185715741e+00 -6.110021479604526018e-01 -2.380481769681557294e-02 -9.247497789018572778e-01 4.761770865822493315e-01 -6.229654919588198947e-01 1.322176540247487209e+00 9.723491298819932904e-01 -6.405112156024169723e-01 8.460071669753593815e-01 -2.584987332034905869e-02 6.410994840543463025e-02 -1.686643813223491408e-04 -1.425681962987884743e-01 -1.382013314845639274e+00 -1.328113217937628932e+00 1.246861209118286462e+00 -5.424411053942672645e-01 1.338034077415836798e+00 -4.371611071052617925e-01 -3.608034506683158171e-01 -2.622033846327549877e+00 -2.133295891322858351e-01 1.193115892633380248e+00 2.057439085823132174e+00 -1.302109592635525975e-02 1.144533351723096892e+00 -3.584359786817057913e-01 -2.267353221233640026e-01 -1.331641285987179846e-01 4.185812856847156982e-01 -3.425840979407787645e-01 5.158558965090067477e-02 2.273207623615820072e+00 -9.046715184350511141e-01 -7.618955769836582848e-01 6.375863284043635781e-01 7.098944970275489208e-01 7.611520138879506181e-01 5.513268386541763100e-01 4.820340600678028609e-01 6.150999725176410360e-01 -1.531342484576214913e+00 -3.796635223566078854e-01 -3.133835627036723470e-01 -4.313123611505044752e-01 -9.515674155321107719e-01 -9.425562124275593812e-02 1.099732389655022846e+00 -2.528937278485710594e-01 -9.912390263694215164e-01 3.320425741081319271e-01 9.795147949848193036e-01 -1.423501667326888542e-01 7.796726999308989381e-01 -1.522442353137412496e+00 -4.790762627465645629e-01 -2.136179640866930907e+00 6.276752391189764912e-01 -3.323547060577132783e-01 4.279344455379845980e-01 2.421033212093388343e-01 8.810055403204216651e-01 -8.841068052099188002e-01 -3.999356440177998517e-01 1.659993298312536059e+00 2.090349723228655421e+00 -1.446258503288536446e+00 -1.047927227775998116e+00 2.321284685602810760e-01 2.885402249321048274e+00 -3.007018524226607870e-01 -4.916170765626908801e-01 5.203851522123215112e-01 -1.416504152384709947e+00 3.410002982625079393e-02 -7.663240454347194364e-01 -8.250871272639656029e-01 -1.574028457008987747e+00 -1.084760340488615471e+00 3.735756637880856545e-01 -3.550040698983358278e-01 1.477754005397111658e+00 3.060687736051649899e-01 -3.346702417561722709e-02 -3.385865464151692206e-01 -8.077424639042010135e-01 2.069223995247356559e-03 -3.364499595115278407e-01 -9.546157156921073472e-01 4.073147107006526157e-01 -9.755300989760788966e-01 2.662053584561675512e-01 -1.084944945710855535e+00 8.189128796220831452e-01 6.513684709293685593e-01 -3.632938213961942608e-01 -4.405894163439084132e-01 2.800985726469212844e-01 2.124708406054312271e-01 9.504916658805059315e-01 -4.337065726122021903e-01 1.611331053197664620e-01 1.550865386714276983e+00 5.880319104187778367e-02 6.233619560990623087e-01 -5.322235405867212776e-01 7.619310582102169216e-02 1.784401277261385088e+00 -4.670902930385077423e-01 -3.728110176447126944e-01 -9.692833462190547644e-01 -2.696023002336536134e-01 -5.942226131222526631e-01 -1.242564381159964704e+00 7.555022713343266805e-01 -6.266154303082895893e-01 3.631590955794063436e-01 -9.441235570442378933e-01 -4.347221584448595633e-01 -5.657085624859552464e-01 -1.670517338642240501e+00 -1.805320802752103715e+00 1.442609079159741681e+00 -8.110355331053847872e-01 -8.160188456645156574e-01 -3.241924812871960770e-01 2.091978260105630538e-01 6.142365960047135864e-02 4.798846176472923997e-01 8.291962646759988287e-01 -2.354770735943394547e-02 1.820037798463828571e-01 3.500166435738069071e-01 -6.433743963194987758e-01 -5.279272268490742270e-01 4.605761455306067731e-01 -2.396114078194360453e-01 -5.547371501692063278e-01 -1.095943097502692226e-01 3.243806860541593728e-01 3.232576281004764240e-01 3.939655419837984063e-01 -1.723508293397269520e-01 7.915296002495901539e-02 -8.560586385049567815e-01 1.904498544293693751e-01 -1.844786725319509380e+00 -8.832660544066809338e-01 3.219617920000730216e-01 2.538181423555929683e+00 -2.588257775526400239e-01 -1.373173861446458810e+00 -6.220193259172555056e-01 9.210329918646684710e-01 6.311693686039928641e-01 -7.935515159427594112e-01 -3.177333553914947206e-01 -5.078499948236174788e-01 -5.089411710954651058e-01 2.414296921253989425e-01 -2.476970137094134938e-01 3.053606917360159323e-01 -4.428442740027452862e-01 -8.862706458093225770e-01 2.718468734789952546e+00 2.797108502581497347e-01 -9.151585348761731575e-03 -3.912494283796988936e-01 -3.058538293631138938e-01 -1.224631963568945658e-01 -2.207616205446392421e-01 6.099726781695766764e-01 -6.796691199856392807e-01 -1.619959676120191761e-01 -7.131474570161012716e-01 2.055389402213525507e+00 1.307821041670121254e+00 -7.536366787262854805e-02 7.353108823190724896e-01 1.332042892334169837e+00 1.164452718001401238e-02 -5.944231591854103325e-01 8.611653640260306941e-03 1.059748132647455821e+00 -6.624314145262252262e-01 1.340521877040341536e-01 -1.862039343178491180e+00 -5.683567989609860094e-01 -1.047567787524338545e+00 -8.503826706969199734e-01 3.183627614974050002e-01 1.194014236152191488e+00 9.024043194800199785e-01 -9.544681343584503486e-01 3.225192072115163483e-02 -7.056892003493349108e-01 3.814956906207894183e-01 1.173457750457855386e+00 -4.801113889648629951e-01 6.488256496926640970e-01 8.752586100592674168e-01 7.763441495031563333e-01 1.198458131223495565e-01 -3.130035536250222461e-01 -9.626087618606273821e-01 1.107060034270399118e+00 -5.169666131664953090e-02 1.130033871356797448e+00 -8.191427362637023757e-01 -1.915529606208715263e+00 1.648704611839457990e-01 1.171120617491056448e+00 3.841675812468592910e-01 1.872904826036239312e+00 2.178408471119839263e-01 1.119809107459804443e+00 -1.578365394179941372e+00 -5.808791008328209049e-01 9.989554218149190312e-01 2.695112831742205728e-01 -9.380598668474294799e-01 -1.445967968607295429e-01 4.096179051029173040e-02 -1.313874447453434513e+00 3.323212817138536113e-01 -1.412282400644903513e+00 5.183982035250361831e-01 -5.934749362611468904e-01 -3.873166686591094643e-01 4.426190453471989805e-01 8.302437321904917455e-01 -3.271775323041967720e-01 4.022768907499969515e-01 -1.238882046907984869e+00 -1.148673342375615913e+00 -1.040966736722402697e+00 1.343711587885897618e+00 7.567081188166465688e-01 1.237846406469012006e+00 4.037383059076741776e-01 -5.397311624382648831e-02 6.000919279040005661e-01 -2.464392813610100763e+00 1.205394968126052069e+00 2.390627343594636522e-01 -1.559050237194483657e-01 2.527286630119720545e-01 1.407307315616569188e+00 -4.137542962107129130e-01 -5.610692635582410492e-01 -3.511818676228204567e-02 -8.604392844332650059e-01 1.761326138702058453e+00 -1.040549703755169419e+00 -2.393517263786805738e-01 -4.235995652497303032e-01 -2.959185717060129339e-01 8.764490309213442965e-01 -6.422976182265445477e-02 5.400350668570500501e-01 1.713970014101085626e+00 -1.329529381675927269e+00 -7.855142467962096253e-01 1.856431252499523676e+00 1.408670000404691702e+00 -4.733123632031431272e-01 -1.065087285913522752e+00 1.071584464139156562e-01 -4.335091118730930448e-01 4.662680541795612976e-01 -5.942282695496750589e-02 -4.566418431479929985e-01 4.373174301903897665e-01 1.166712203646311119e+00 -4.773412821899133962e-01 1.004981059681794742e+00 -5.159998782979404591e-02 4.438022671198292857e-01 -4.310295397793846295e-01 1.008908677195636594e+00 -3.524571348962333706e-01 7.012175373615936458e-01 -6.962008004586032195e-01 7.547540802525462000e-01 5.028142317556608676e-01 7.684904571374970850e-01 1.595656064368855986e+00 -1.334873677148741722e+00 -6.070704166812126434e-01 -1.333687370052062837e+00 2.580642167333156434e-01 -6.726582353059169517e-01 7.396107956014429385e-01 -3.252625745113783551e-01 6.163664980395828774e-01 -5.631590563804789173e-01 -2.432393375240258226e+00 -1.723068120499671840e+00 5.858675555986992967e-01 -1.234880381616977330e+00 -5.413293602954291073e-01 -3.630079147010258911e-01 1.018609450225045621e-01 3.250471160486525513e-01 -2.596496104956782514e+00 -1.106955647473422122e+00 8.790705279212875090e-02 -1.209701052056519455e+00 -2.934626537633436283e-01 -3.525774625341280277e-01 1.611578393342225413e+00 -1.317836003531810629e+00 -3.019899752129427961e-01 -4.757826793247059149e-01 -1.586777015977718586e+00 -3.611546633891791203e-01 -1.479618569563803110e-01 3.095598177661327277e-01 -2.751240018392615005e-01 -3.327610946569786510e+00 1.882886363554068687e+00 -5.515880627569560435e-01 -2.815476465084041924e-01 1.290282517115970938e-02 5.783429644648884205e-01 1.452139645145803959e+00 1.909301365395982535e-03 -3.776164098503753674e-01 1.100616334994940493e+00 1.723307747334111628e+00 1.804893485371375839e+00 -1.096615698145282591e+00 -3.876966777377595652e-01 2.003182633987511119e-01 -5.737468600738544477e-01 -8.311014522759967438e-01 1.623210065005370462e+00 -6.214140881830589880e-01 1.439576205619987892e-01 -7.688519542718557087e-01 -1.454038147877029896e+00 9.194502206277471723e-01 6.910812194206603642e-01 -8.460421339812433661e-02 2.599555203750948951e-01 1.359808751888686773e+00 -1.062515154098357062e+00 -1.840936240906882126e+00 -7.553438913664994869e-02 -3.380769537264788349e-01 1.043095610315922572e+00 2.636548239093417512e-01 -3.451726848175370455e-01 4.778971547393324748e-01 -8.657373000453508771e-01 4.136391107795659577e-02 2.244676089476580483e-01 -7.543966968835855713e-01 2.952660256697383634e-01 -1.488537212946897004e+00 -1.629323634607630633e-01 -2.529281806337801974e-01 5.901273596684379896e-01 1.008679848995367029e-01 3.405374996552210098e-01 3.232303744047139715e-01 1.273889162004518127e-01 1.322450619867136190e+00 -7.304083024058796170e-01 -2.333193522209653370e+00 -2.784180994817949673e-01 -1.891329352813006626e+00 5.230333886873523852e-01 -3.216218921340545100e-01 2.605827667541711357e+00 -4.379535211650719129e-01 -3.725477366592339079e-02 -3.750298798563161395e-01 7.597337932669534499e-01 7.180541506946922503e-01 -5.040185365759565217e-01 -3.230344563276292269e-01 -5.189869861976401655e-01 1.054850180720335651e+00 1.283253120491957278e-01 -3.451063503504925856e-01 -3.668260032111431701e-01 -1.583229921763201764e+00 7.222676749037023614e-01 2.590592337389825348e-02 -1.828491586356936482e-01 4.946381230269250584e-01 -1.072884414004958042e+00 -4.585501160720396041e-01 -1.153150661790779630e+00 5.155792457859840194e-01 1.827447718387166797e-01 7.351103362559148202e-01 -2.591487081363912925e-01 -8.846050850437643387e-01 -5.801386230611618178e-01 1.088520322062484613e+00 -8.699353976341182015e-01 -8.010241707884189211e-01 7.691296334362278664e-01 -3.446075562959721728e-01 -1.122401808101961107e+00 2.791261813509439693e-01 8.200102265420281533e-01 -3.735715500226875485e-01 -2.138284346088736854e+00 1.087042966063889837e+00 -3.212274848765110380e-01 1.364477875615537128e+00 7.859194526879229592e-01 9.415709656147130957e-01 2.866867679319881623e-01 3.730511586998271345e-01 -3.271127404991766019e-01 -2.832492027211957475e-01 3.716946445598016679e-01 1.614112987048133552e-01 -3.208922129965654513e-01 -3.137743704164924208e-01 2.440270207536281710e-01 -3.233213914641470954e-02 6.680857850659220609e-02 5.120095258617776146e-01 -2.849625860095069685e-01 -7.905422965540447044e-02 8.127309186700792942e-01 -9.592390737789039390e-01 -6.345513979819108474e-01 3.258904379552643449e-01 3.040823391385544805e-01 -1.034310150087592195e+00 -1.576878782209200747e+00 3.211013465449916726e+00 -3.555121199250018682e-01 1.529168359563316093e+00 -1.089808444852766511e+00 -2.299119203417140600e+00 1.591819978135122104e+00 5.854335533491991095e-01 -1.684152414054263192e+00 8.397177339023299547e-01 1.439956728919312978e-01 -7.549083464549751765e-01 -2.310393491711325020e-01 2.149375571822705611e-01 -4.792464697899112003e-01 2.321878096261487556e+00 -8.315585944558613329e-01 1.772613796733786717e+00 1.385497674137835089e+00 6.796099846080415618e-01 4.524915680819788233e-01 4.623903160711715365e-01 -2.030734577741326596e+00 4.582863208658859988e-01 -2.674975950118476092e-03 7.452723652305863755e-01 -8.599384334960455956e-01 -3.514040109543181689e-01 -5.754530442727189277e-01 -1.146151604186576856e-01 1.761948859939196810e+00 2.781635602477871561e-01 1.425080324798411735e-01 8.464879633062629694e-01 -1.414687410740771645e+00 -8.455525958988686641e-01 -1.818210772406394504e+00 -7.896856049098891495e-01 -1.096508740244931945e-01 -1.627945523199265110e-01 -8.297459665773208037e-01 -3.886860383160040677e-01 7.740049596536581998e-03 -1.244214515305279933e+00 3.909228982512241712e-01 -2.299630852988530094e-01 1.818107414050767145e+00 4.243786095719966900e-01 -7.522775934828862532e-01 1.374218243636903036e+00 1.694282047126424606e+00 -7.366231734810684273e-01 3.670373479084708124e-01 -1.310673423753033084e+00 -4.097809130568172420e-01 1.152760368298634264e+00 -5.499523267905341850e-01 -2.716319292369442362e-01 -4.906961073341900015e-01 6.522606438000827511e-01 7.265578179932522529e-01 -8.874903772498611287e-01 -1.287519095209793019e+00 3.569447387248922965e-01 6.687768976528040143e-01 5.610456094072019395e-01 1.754109565752430891e-02 -9.512146601492231790e-01 1.538189332860687708e+00 -7.181796205393345955e-01 1.342763879182309050e-01 3.093279042418144997e-01 2.069273874652808320e+00 -2.560092366507592310e+00 6.763698801363581259e-01 5.401559087156193595e-01 -7.229665008007056803e-01 -5.846056580628302690e-01 -1.643233303859976902e+00 2.115138759296968096e-01 5.690556248579893284e-01 -4.047580055057297121e-01 -3.070293378256226946e-01 -2.467457054611014999e-01 1.024070473791031111e+00 -5.752293582791969673e-01 -1.385923963077213772e+00 1.029258960399392769e-01 2.734239882884941797e-01 2.558936912651398887e-01 2.762650575165611633e-01 -2.811984906702398868e-01 4.306654715416522450e-01 3.183437353324387875e-02 1.056420096440388035e-01 6.333450362789162513e-01 -6.927123274010092979e-01 -1.175505891405437486e+00 3.587913051679671450e-01 -5.489213143376338033e-01 -6.556298176611315975e-01 -1.310609660389362441e-01 -5.637272702260923696e-01 -8.671303238532844515e-02 -4.144222688672304922e-01 -1.529467121775353322e-01 1.263045276415110330e+00 7.723311713573038917e-01 7.756052143935214804e-01 1.141390434958943656e+00 1.511330558576453320e-01 3.632398282253441191e-01 -1.420694022442680948e+00 -3.636620033993247514e-01 -3.571781949112348142e-01 2.349988483668096362e-03 -7.741057469059118290e-01 5.073604567412428601e-01 -3.846987712038897333e-01 -8.391880866073238021e-01 2.520246949082211585e-01 2.265533394265653033e+00 -5.288831630834591735e-01 3.992625291545347510e-01 -2.054198467130773920e-01 -1.543354679538684771e+00 1.481294928963531321e+00 4.838765127454795756e-02 -7.678888189480239657e-01 -1.210973748226558788e+00 3.801895701068906952e-01 -4.597071125902569277e-01 -2.863813208511787889e-01 -7.331182453618819705e-01 1.189336370673869991e+00 8.475164046557897013e-01 -9.233891509964338162e-01 1.415581126273510071e+00 -1.654864975523122061e-01 1.407595279194436610e+00 7.843973594906237246e-01 1.539260454526219624e+00 -4.941722390955895494e-01 1.426977799088288146e-01 -4.671591986089260878e-02 -1.232658434081325138e+00 -5.061242702391119952e-01 -9.564566257077599110e-01 1.534434493493566469e-02 -1.568719642762732125e+00 8.852905412032239241e-01 4.154671652783493152e-01 1.236506347390578853e+00 -1.413921736156048825e-01 3.242423606926480573e-01 2.481382150483604221e-01 -1.794174555405935623e+00 -6.273008864677488416e-01 1.405477204235086708e+00 -6.682302810755305078e-01 5.717552834004963058e-01 5.356379658671492905e-01 3.012582391927546288e-01 5.652467923200177324e-01 -3.840235994579255796e-01 1.059456569524864999e+00 -1.438289111271055409e+00 1.399059730214041286e+00 4.603462888889875981e-01 -1.625886069396838218e+00 1.697291266515139174e+00 4.133681164839657085e-01 9.245070667433691325e-02 7.930655774051079687e-01 -4.311760926716921571e-01 1.396606897595420449e+00 6.096831719296849084e-01 1.329620398735360254e-01 1.772786060659832519e-01 -7.044663835847480016e-01 -1.534223663016913430e-01 -5.895992550354562933e-01 1.951914832713614212e+00 4.389233413576754117e-02 8.480892464874758563e-01 -8.076226504869810086e-01 -3.562027182912089196e-01 -3.875177289429418970e-01 -6.458909923017902566e-01 -6.677062902079466955e-01 -4.121021051826985748e-01 -3.669427313043143596e-02 4.712086864226866512e-01 -8.431635266439185816e-01 1.211595955243022216e+00 8.511123498344090599e-02 2.013667593545933610e-01 -7.664942524780660182e-01 1.172572262455913034e-01 2.986228582345929472e-01 -9.918452925449674495e-01 8.658386015182791828e-01 7.065119534289562298e-01 -4.075939325270491187e-01 -2.774390233170457298e-01 -8.367450241815236334e-01 1.119628101782287749e-01 -2.517583285986937924e-01 8.815953514343751740e-01 -1.180836817140708428e+00 2.086375311633410057e+00 -2.083113095672712023e-01 9.388245129908024955e-01 4.075779916861314578e-01 3.369245851943343251e-01 3.232565996591268975e-01 2.913692613963824174e-01 1.187633786019729049e-01 -4.426324150847428807e-01 -6.146531147512716842e-02 -1.319500535856019119e-01 -2.637525258375467696e-01 -1.050240706591757833e+00 3.491805207566418545e-01 2.516714253046587468e-01 -1.047249999147334742e+00 3.477623001356447419e-02 -3.311827971399277648e-01 -1.775845673674674163e-01 4.031438668076478549e-02 -3.342280119758758161e-01 1.145580819237589587e+00 -7.224157704580342898e-01 -1.047252570250708725e+00 4.130446716795396211e-01 -4.250332124909703135e-01 4.810369861794368540e-01 1.666765584599168015e+00 -5.086213258357624722e-01 6.460092630569858052e-01 4.488359733050868439e-01 -5.394946209278737859e-02 9.651937491926624313e-01 4.512898343650570965e-01 -1.165396312939591672e+00 5.300345031742541568e-01 5.840698401197268463e-01 2.866492298227304447e-01 1.334470013919052400e+00 6.144638815429589451e-01 -1.828897820689999454e-01 -1.026656489564415908e+00 -2.005630324399384212e-01 3.238417827870074817e-01 -1.224703440242737695e+00 -3.050804414682699583e-01 -2.031516193166966466e-01 8.676167766116105184e-01 -1.618106424808344990e+00 1.582807232368546313e-01 1.506126645347849180e-01 -1.372598962732073380e-01 4.270654125976346416e-01 4.941439569584775704e-01 1.384801419344205531e+00 3.372603712949547861e-01 -9.472191655063127991e-01 1.761030976034744233e-01 -2.835099640253682551e+00 -1.527952227667500829e+00 -4.298144363249190580e-01 8.611231979307001350e-01 3.845630169457522896e-01 6.704049203091043407e-02 -2.170760467024085205e+00 -1.427206627288557961e+00 1.698141787511197875e-01 -3.906765865480126276e-01 -6.479643300624357005e-01 1.535288099813673368e-01 -1.791477982187477114e+00 3.794352083770130002e-01 6.084531560756512025e-01 -1.535541096385657056e+00 1.726897007643959092e-01 4.127906466662065732e-01 -1.686194384353748354e+00 7.012699878704194978e-01 5.682596112534556987e-01 2.240150947538663631e-02 -1.253620639888049615e+00 -5.646101871246609338e-01 1.661282449544167483e-01 -1.135347313589126106e+00 9.359993846036530618e-01 7.680708530668901857e-02 -6.922346163941542896e-01 -1.690870707170045451e-01 4.887976046029639532e-01 -4.811470294038362461e-01 9.194723321167620478e-01 8.754972084523575671e-01 -1.293799272310676818e+00 -6.435523166729668620e-01 1.153696249926703166e+00 1.381078461658919732e-01 3.096060976268614207e-01 -7.434078010638948131e-01 4.942036065567501635e-01 8.643072523488343206e-02 1.833441988792882560e+00 7.818108294965646354e-02 1.702841764478534026e-02 1.032617335626271560e+00 -3.179411005440991311e-01 -1.319104585936451635e+00 -8.934841334349016839e-02 8.881938311329371505e-01 -2.281846530951842755e+00 4.175045075917614423e-01 -7.367018492443071498e-01 -6.571287709280665412e-01 1.974629502579931639e+00 -6.323721307622641730e-01 5.741170989596841023e-01 1.082641751308591083e+00 -1.230710051944647221e+00 -6.170709803640085367e-01 -1.403904717411660563e+00 3.632202878397031709e-01 4.156096044052588478e-01 -1.821487900766660950e-01 3.016552175536718616e-01 -3.707222532638243528e-02 1.478379811958298262e+00 6.469122345618700809e-01 1.179038587441060937e+00 1.573782659526451022e+00 1.130067295700656782e+00 -1.939990055265853885e-01 -2.056328369165643100e+00 5.014381772299943973e-01 4.553763460674006280e-01 -1.111916334322863298e+00 9.085950221834946383e-01 -1.086424872812824072e+00 4.139728399974873518e-01 -6.265131003940115351e-01 8.844081385253301647e-03 1.674514375947175449e+00 -4.791852775296143729e-01 5.642234931772388551e-01 -5.692412585215788079e-01 -5.058388777646184442e-01 2.123649111464299688e-01 6.839500071030434336e-01 -1.264838878128684563e-01 -5.727862958533967985e-01 1.569957371926887335e+00 8.408279363391438777e-01 5.606429746188623664e-01 1.363439149852515575e+00 -2.017082018826361900e-02 2.015904453481153769e-01 -1.901992746945572188e+00 -1.602974967232761450e-01