3.662431591690637589e+01 -4.607245800866646590e+00 -3.713241882043509801e+00 -4.607245800866646590e+00 1.134306811566993503e+02 -4.826884220803890457e+00 -3.713241882043509801e+00 -4.826884220803890457e+00 4.712968761099512705e+01
3.171733670710937503e+01 8.090925139511830899e-01 6.646288828426480499e+00 8.090925139511830899e-01 1.247927025138114487e+02 5.910379427674126163e+00 6.646288828426480499e+00 5.910379427674126163e+00 6.458709213867162902e+00
5.079324330632137219e+01 -8.548091748359993858e+00 -4.205604837697353160e-01 -8.548091748359993858e+00 7.202739668839429044e+01 4.812563225072585382e+00 -4.205604837697353160e-01 4.812563225072585382e+00 2.057796183000112222e+01
7.402952212167681978e+01 1.016780438756546889e+00 -1.215022131403400252e+01 1.016780438756546889e+00 1.013136248418009160e+02 3.005651207779951317e+00 -1.215022131403400252e+01 3.005651207779951317e+00 8.095511697140699425e+01
6.965994121006053774e+01 3.347785255963346085e+00 1.288049468683671606e+01 3.347785255963346085e+00 1.259574715584357989e+02 -3.406419661385560183e+00 1.288049468683671606e+01 -3.406419661385560183e+00 3.487861437639775630e+01
6.134453479293100031e+01 1.634387913387254976e+00 6.434698244134374967e+00 1.634387913387254976e+00 1.479865087001002735e+02 -1.559473029186139836e+00 6.434698244134374967e+00 -1.559473029186139836e+00 5.113006709094342028e+01
8.318871078941398878e+01 6.557010034955638389e+00 -5.666884495183163395e+00 6.557010034955638389e+00 1.113563531245393250e+02 -7.884261510296405318e-01 -5.666884495183163395e+00 -7.884261510296405318e-01 3.063218146914911344e+01
4.706166938988273785e+01 -4.320260874225793302e+00 -7.649630360299380927e-01 -4.320260874225793302e+00 1.379355866767674001e+02 6.732327997806592634e+00 -7.649630360299380927e-01 6.732327997806592634e+00 6.559104528502615494e+01
4.676611334128144648e+01 -3.102205746204439674e+00 -1.201336254305635087e+01 -3.102205746204439674e+00 1.021703351306387333e+02 -2.449648990893963596e+00 -1.201336254305635087e+01 -2.449648990893963596e+00 3.524430335680035142e+01
5.167037989410715682e+01 1.326825571810596749e+01 -2.955912787110052786e+00 1.326825571810596749e+01 8.439578855493718379e+01 -3.733201773068039575e+00 -2.955912787110052786e+00 -3.733201773068039575e+00 3.286171105509488655e+01
9.670259937316151877e+01 5.546790944900126696e+00 -1.383898218556955273e+00 5.546790944900126696e+00 1.134693373893404527e+02 7.129305609184684311e-02 -1.383898218556955273e+00 7.129305609184684311e-02 5.954557709512076258e+01
5.860854522989811954e+01 -2.070747867892301919e+00 -7.436726730908844729e+00 -2.070747867892301919e+00 9.806519157257831409e+01 5.031935884088527544e+00 -7.436726730908844729e+00 5.031935884088527544e+00 4.474921902949199648e+01
1.168847820452852773e+02 1.874989498541474120e+01 3.767578440148170227e+00 1.874989498541474120e+01 1.329130241835894140e+02 -6.028475926535507234e+00 3.767578440148170227e+00 -6.028475926535507234e+00 1.024816020329415522e+02
1.036456257968920056e+02 -9.204495116056223836e+00 -6.509047777287031433e-01 -9.204495116056223836e+00 1.384197777940094340e+02 4.440517230458104758e-02 -6.509047777287031433e-01 4.440517230458104758e-02 4.519272298584152026e+01
4.929093778010012272e+01 -7.786525002147778984e+00 2.041392325887465109e+00 -7.786525002147778984e+00 1.204679868798156406e+02 9.312412262176545497e+00 2.041392325887465109e+00 9.312412262176545497e+00 1.630516085505372814e+01
9.538522866866510697e+01 -6.185403178586057926e+00 6.406395523133293857e+00 -6.185403178586057926e+00 1.480052995514662939e+02 9.965585035928599567e+00 6.406395523133293857e+00 9.965585035928599567e+00 4.978985092183150840e+01
8.058202622328818165e+01 6.763732292834622406e+00 1.004973172406718263e+01 6.763732292834622406e+00 1.333209998782711239e+02 -3.064537566268446867e+00 1.004973172406718263e+01 -3.064537566268446867e+00 4.804304899653512706e+01
1.169958477363843201e+02 -1.095848577448506767e+01 -1.833424221000999443e+00 -1.095848577448506767e+01 1.032747592416551896e+02 8.252480980728133630e+00 -1.833424221000999443e+00 8.252480980728133630e+00 9.180428661742196539e+01
1.101584080910645582e+02 -1.256323647969832713e+01 -1.671022049974800749e-01 -1.256323647969832713e+01 1.536405401664349313e+02 -1.363053474739458615e+01 -1.671022049974800749e-01 -1.363053474739458615e+01 6.647782285251423673e+01
5.703623011730373804e+01 9.947274506065243438e-01 4.472248779377757444e+00 9.947274506065243438e-01 1.238880588200674993e+02 1.850290132170589796e+00 4.472248779377757444e+00 1.850290132170589796e+00 6.964349319292904283e+01
1.090060392235322411e+02 1.549306054465119331e+01 -1.087721352622003756e+01 1.549306054465119331e+01 1.574778646401780122e+02 3.447796606369656569e+00 -1.087721352622003756e+01 3.447796606369656569e+00 7.858478386866171661e+01
8.869352350945159458e+01 1.385588278622425840e+01 -1.467361001347680771e+00 1.385588278622425840e+01 1.237902639468492083e+02 -5.651483956429854238e+00 -1.467361001347680771e+00 -5.651483956429854238e+00 7.818872299492399236e+01
5.621550337475070336e+01 -3.621229394611709118e-01 1.547273422784807950e+00 -3.621229394611709118e-01 9.844392961545165122e+01 9.711869319831993863e+00 1.547273422784807950e+00 9.711869319831993863e+00 9.753098201946349022e+00
9.971078525987654473e+01 -3.409888396801459276e-01 -6.760126339097201509e+00 -3.409888396801459276e-01 1.570773201544049300e+02 -6.684830991295849234e-01 -6.760126339097201509e+00 -6.684830991295849234e-01 8.791263567938634083e+01
3.228170736243427541e+01 -1.289564690325865293e+00 2.177577835098278669e+01 -1.289564690325865293e+00 1.074460326470820064e+02 -3.491606497982564061e+00 2.177577835098278669e+01 -3.491606497982564061e+00 2.325803094763216095e+01
1.190337285175078819e+02 -2.972317083508809521e+00 -2.164486873727266669e+00 -2.972317083508809521e+00 1.911041628500665865e+02 -6.897498921350163847e+00 -2.164486873727266669e+00 -6.897498921350163847e+00 8.951382907241723785e+01
5.183199291445325230e+01 1.510272363409764562e+00 5.597411402755970933e+00 1.510272363409764562e+00 1.516368206398659879e+02 4.748082952953504576e-01 5.597411402755970933e+00 4.748082952953504576e-01 6.067428045923968938e+01
