1.251527100000000026e+01 2.759349999999999969e+00 9.696429000000000187e+00 8.201771000000000811e+00 2.739360000000000017e+00 1.677162900000000079e+01 8.749371000000000009e+00 1.230521000000000065e+01 5.987758999999999610e+00 5.861970999999999599e+00 1.101341000000000037e+01 1.827832899999999938e+01 1.476361000000000034e+00 3.745730000000000004e+00 1.956862900000000138e+01 1.505447099999999949e+01 1.949389999999999956e+00 1.883542900000000131e+01 7.774109999999999632e-01 7.263460000000000250e+00 2.266929000000000194e+00 7.507110000000000172e-01 6.521709999999999674e+00 6.306339000000000361e+00 1.494437100000000029e+01 6.105249999999999844e+00 4.054279000000000188e+00 1.354127100000000006e+01 3.660620000000000207e+00 1.168642900000000040e+01 1.462577100000000030e+01 3.750469999999999970e+00 9.575328999999999979e+00 1.465947099999999992e+01 2.037259999999999849e+00 1.583018999999999954e+00 4.049710000000000254e-01 2.027210000000000178e+00 3.784298999999999857e+00 1.463177100000000053e+01 3.967189999999999994e+00 2.844028999999999918e+00 1.169791000000000025e+00 6.202950000000000408e+00 2.257899999999999838e-02 3.025580999999999854e+00 5.824089999999999989e+00 5.700299000000000227e+00 5.506681000000000381e+00 1.368101000000000056e+01 1.044052899999999973e+01 4.271771000000000207e+00 1.280399999999999872e-01 8.997728999999999644e+00 3.153551000000000215e+00 1.321151000000000053e+01 1.002012900000000073e+01 3.246430999999999845e+00 3.293839999999999879e+00 1.225702899999999929e+01 2.173721000000000014e+00 3.217649999999999899e+00 1.436312900000000070e+01 1.225300999999999974e+00 2.314229999999999787e+00 1.239392899999999997e+01 9.823670999999999154e+00 2.310410000000000075e+00 1.855412899999999965e+01 9.510370999999999242e+00 7.028799999999999493e-01 1.683572900000000061e+01 8.797310000000000407e-01 1.363180999999999976e+01 1.027542900000000081e+01 1.385287100000000038e+01 1.422200999999999915e+01 9.787428999999999490e+00 1.590110000000000134e-01 7.274199999999999555e-01 1.092342900000000050e+01 3.248740999999999879e+00 5.453219999999999956e+00 1.115452900000000014e+01 3.152690999999999910e+00 2.609300000000000175e+00 1.636062899999999942e+01 1.239677099999999932e+01 5.423000000000000043e+00 1.821312899999999857e+01 1.174867099999999986e+01 6.204410000000000203e+00 5.231489999999999752e-01 6.639610000000000234e-01 1.372950999999999944e+01 1.980052900000000093e+01 5.423909999999999565e-01 1.366031000000000084e+01 2.296318999999999999e+00 1.396397100000000080e+01 1.276021000000000072e+01 9.927390000000000381e-01 1.370217099999999988e+01 4.545609999999999928e+00 1.641692899999999966e+01 9.124171000000000475e+00 1.054440999999999917e+01 7.552528999999999826e+00 1.069327099999999930e+01 1.095331000000000010e+01 5.780078999999999745e+00 1.243827100000000030e+01 8.382410000000000139e+00 1.443168999999999924e+00 1.480747099999999961e+01 8.938610000000000610e+00 1.487748999999999988e+00 1.301617099999999994e+01 1.059881000000000029e+01 1.067609000000000030e+00 1.070821000000000023e+00 1.345200999999999958e+01 1.743362899999999982e+01 6.283109999999999529e-01 1.377970999999999968e+01 4.733569000000000138e+00 1.940610000000000113e-01 6.985319999999999752e+00 1.354302900000000065e+01 1.430667099999999969e+01 4.763760000000000439e+00 1.385092900000000071e+01 1.490287099999999931e+01 7.608439999999999870e+00 1.608322899999999933e+01 1.123397100000000037e+01 1.195461000000000062e+01 1.207182899999999925e+01 1.314097100000000040e+01 1.102561000000000035e+01 1.312422899999999970e+01 1.100327099999999980e+01 1.039061000000000057e+01 1.380742900000000084e+01 1.686630999999999991e+00 7.177950000000000053e+00 1.162452900000000078e+01 3.043191000000000201e+00 7.283400000000000318e+00 9.716528999999999527e+00 5.088620999999999839e+00 1.320091000000000037e+01 1.903092900000000043e+01 7.249151000000000344e+00 1.238420999999999950e+01 1.968702899999999900e+01 1.261817100000000025e+01 8.529109999999999303e+00 1.674242900000000134e+01 1.053417100000000062e+01 8.658709999999999241e+00 1.798592899999999872e+01 1.057147100000000073e+01 8.865009999999999835e+00 1.560082899999999917e+01 1.087277100000000019e+01 1.423010999999999981e+01 1.095412900000000000e+01 4.886110000000000175e-01 1.160130999999999979e+01 1.288292900000000074e+01 1.101267099999999921e+01 4.021099999999999675e+00 1.962702900000000028e+01 1.337301000000000073e+00 7.865910000000000402e+00 1.789472900000000166e+01 1.437667099999999998e+01 1.274920999999999971e+01 1.627242899999999892e+01 9.780770999999999660e+00 1.421391000000000027e+01 8.785028999999999755e+00 1.203267100000000056e+01 1.379151000000000060e+01 7.969729000000000063e+00 7.928410000000000180e-01 1.432291000000000025e+01 1.530432899999999918e+01 1.208027099999999976e+01 1.245750999999999920e+01 1.694872900000000016e+01 1.110547099999999965e+01 1.371570999999999962e+01 1.877652900000000002e+01 5.685910999999999937e+00 2.737480000000000135e+00 4.775508999999999560e+00 4.807121000000000421e+00 3.762719999999999843e+00 2.917349000000000192e+00 6.783470999999999584e+00 2.498510000000000009e+00 2.514978999999999854e+00 1.147897099999999959e+01 3.959080000000000155e+00 5.903069000000000344e+00 1.142047099999999915e+01 2.435820000000000096e+00 7.713129000000000346e+00 1.144067100000000003e+01 1.548540000000000028e+00 5.457319000000000031e+00 5.384070999999999607e+00 5.978240000000000443e+00 5.519229000000000163e+00 3.978730999999999796e+00 5.655529999999999724e+00 3.650919000000000025e+00 1.063867100000000043e+01 1.506180999999999948e+01 1.004648999999999903e+00 8.822971000000000785e+00 1.176849999999999952e+00 1.873968999999999996e+00 1.067937099999999973e+01 6.405999999999999472e-01 3.286219000000000001e+00 1.048287099999999938e+01 5.946930000000000049e+00 4.678958999999999868e+00 7.975271000000000221e+00 6.443999999999999728e-01 8.148528999999999911e+00 6.594171000000000227e+00 2.192930000000000046e+00 7.096929000000000265e+00 7.688771000000000022e+00 2.819760000000000044e+00 9.124829000000000079e+00 7.826971000000000345e+00 1.255330999999999975e+01 1.588602900000000062e+01 6.011681000000000274e+00 1.401651000000000025e+01 1.558502900000000047e+01 7.755570999999999771e+00 1.388280999999999921e+01 1.389802899999999930e+01 1.133587099999999914e+01 6.666500000000000092e+00 1.322742900000000077e+01 9.069070999999999216e+00 6.089730000000000310e+00 1.313292900000000074e+01 1.059817100000000067e+01 4.636630000000000251e+00 1.413592900000000085e+01 5.059300999999999604e+00 2.520249999999999879e+00 1.779412900000000164e+01 4.559530999999999779e+00 6.655100000000000460e-01 1.637742899999999935e+01 8.138470999999999123e+00 2.781750000000000167e+00 1.147942899999999966e+01 8.523671000000000220e+00 8.409499999999999753e-01 1.268932900000000075e+01 9.822870999999999242e+00 2.717239999999999878e+00 1.314762900000000023e+01 1.231647099999999995e+01 7.593289999999999651e+00 1.120002900000000068e+01 7.190431000000000239e+00 5.534690000000000332e+00 1.111958999999999920e+00 5.247721000000000302e+00 6.529930000000000234e+00 1.568690000000000084e-01 3.536170999999999953e+00 8.996610000000000440e+00 7.917429000000000272e+00 2.332981000000000193e+00 1.088911000000000051e+01 7.358029000000000153e+00 2.784450999999999787e+00 9.289910000000000778e+00 5.682178999999999647e+00 4.871730999999999590e+00 1.433641000000000076e+01 4.207309000000000410e+00 6.920941000000000010e+00 1.339231000000000016e+01 4.983788999999999803e+00 5.683651000000000231e+00 1.228270999999999979e+01 3.315179000000000098e+00 8.673571000000000808e+00 5.850719999999999921e+00 3.139549000000000145e+00 1.394837099999999985e+01 1.387611000000000061e+01 6.328519000000000005e+00 8.787810000000000343e-01 1.281190999999999924e+01 6.917328999999999617e+00 4.207651000000000252e+00 8.452709999999999724e+00 1.029779000000000000e+00 3.420160999999999785e+00 8.987510000000000332e+00 3.198299000000000003e+00 4.946170999999999651e+00 1.046151000000000053e+01 2.005028999999999950e+00 3.733840999999999966e+00 5.666299999999999670e-01 2.478638999999999815e+00 9.433671000000000362e+00 6.612589999999999968e+00 8.157429000000000485e+00 7.378331000000000195e+00 6.073229999999999684e+00 7.116128999999999927e+00 7.349891000000000396e+00 6.609750000000000014e+00 9.370229000000000141e+00 2.870430999999999955e+00 9.168309999999999960e+00 1.665032899999999927e+01 3.748161000000000076e+00 1.002651000000000003e+01 1.462182899999999997e+01 4.168690999999999924e+00 7.792010000000000325e+00 1.521012900000000023e+01 7.392470999999999570e+00 8.865309999999999135e+00 1.443392899999999912e+01 6.669781000000000404e+00 9.363310000000000244e+00 1.667092900000000100e+01 7.407471000000000139e+00 7.182310000000000194e+00 1.614202900000000085e+01 1.158197099999999935e+01 7.387710000000000221e+00 9.037829000000000335e+00 1.286637099999999911e+01 9.370710000000000761e+00 9.761328999999999922e+00 1.487910999999999984e+00 1.365531000000000006e+01 1.335312899999999914e+01 2.768171000000000159e+00 1.169781000000000049e+01 1.332322899999999954e+01 6.881180999999999770e+00 6.446100000000000385e+00 1.187092900000000029e+01 5.610490999999999673e+00 5.949679999999999858e+00 1.401882900000000021e+01 7.032751000000000197e+00 4.791009999999999991e+00 1.561682899999999918e+01 7.706971000000000238e+00 9.925209999999999866e+00 1.203132899999999950e+01 6.057151000000000174e+00 4.432900000000000063e+00 1.918732899999999830e+01 9.421870999999999441e+00 7.976609999999999978e+00 3.976649000000000100e+00 2.753781000000000034e+00 2.016840000000000188e+00 9.386290000000000466e-01 7.077371000000000301e+00 1.201341000000000037e+01 1.102532899999999927e+01 8.247370999999999341e+00 1.032260999999999918e+01 9.759928999999999633e+00 3.945501000000000147e+00 1.311000000000000013e-02 2.036590000000000067e-01 1.384377100000000027e+01 1.060760999999999932e+01 8.096529000000000309e+00 1.300117099999999937e+01 1.027370999999999945e+01 5.973348999999999798e+00 1.481167100000000048e+01 8.893309999999999604e+00 6.806118999999999808e+00 9.250071000000000154e+00 9.857509999999999550e+00 2.634968999999999895e+00 8.902770999999999546e+00 1.158281000000000027e+01 1.122999000000000080e+00 9.495271000000000683e+00 9.439510000000000289e+00 3.102389999999999870e-01 1.419557099999999927e+01 2.104140000000000121e+00 1.667532900000000140e+01 9.812770999999999688e+00 1.233620999999999945e+01 1.731002900000000011e+01 3.189261000000000124e+00 1.839890000000000025e+00 7.641028999999999627e+00 1.432231000000000032e+00 3.247930000000000206e+00 8.057028999999999996e+00 1.413940999999999892e+00 1.893790000000000084e+00 6.089539000000000257e+00 1.311787099999999917e+01 1.022559999999999913e+00 1.478652899999999981e+01 1.108547100000000007e+01 1.499741000000000035e+01 1.518532899999999941e+01 1.207017100000000021e+01 1.487200999999999951e+01 1.304582899999999945e+01 1.147177100000000038e+01 2.162580000000000169e+00 9.062428999999999846e+00 7.495430999999999955e+00 3.506219999999999892e+00 1.597832900000000045e+01 8.101171000000000788e+00 1.347671000000000063e+01 5.671069000000000138e+00 5.697521000000000058e+00 1.004241000000000028e+01 1.737122899999999959e+01 4.337791000000000174e+00 1.241319999999999979e+00 8.195828999999999809e+00 1.476557099999999956e+01 1.495900000000000007e+00 2.953189999999999982e-01 7.502609999999999557e-01 2.991519999999999957e+00 1.868642900000000040e+01 7.409609999999999808e-01 3.999429999999999819e+00 9.029529000000000138e+00 1.083271000000000095e+00 6.168370000000000353e+00 1.461249000000000020e+00 1.977821000000000051e+00 5.954419999999999824e+00 6.597239000000000075e+00 1.427557099999999934e+01 5.226770000000000138e+00 3.177878999999999898e+00 1.492627099999999984e+01 5.870269999999999655e+00 5.443318999999999797e+00 4.731909999999999727e-01 7.174389999999999823e+00 3.615129000000000037e+00 9.648309999999999942e-01 8.574709999999999610e+00 1.785139000000000031e+00 1.367127100000000084e+01 3.051829999999999821e+00 8.891629000000000005e+00 1.244127100000000041e+01 3.018260000000000165e+00 1.106262899999999938e+01 1.437957100000000032e+01 4.292889999999999873e+00 1.083692899999999959e+01 1.339410000000000045e-01 3.341310000000000002e+00 3.839158999999999988e+00 1.419287100000000024e+01 3.374499999999999833e+00 1.681699000000000055e+00 1.442610000000000003e-01 1.340640000000000054e+00 2.586688999999999794e+00 1.355087100000000078e+01 3.849860000000000060e+00 1.307772899999999971e+01 1.904760999999999926e+00 1.271210999999999913e+01 1.033682899999999982e+01 3.245280999999999860e+00 1.433331000000000088e+01 9.042828999999999340e+00 4.334291000000000338e+00 1.290620999999999974e+01 1.062582899999999952e+01 5.461320999999999870e+00 1.477440999999999960e+01 9.621128999999999820e+00 1.003127100000000027e+01 1.480730999999999931e+01 1.601662899999999823e+01 3.835731000000000002e+00 4.199609999999999843e+00 1.141022899999999929e+01 2.039041000000000103e+00 3.182980000000000143e+00 1.575162899999999944e+01 1.566110000000000002e-01 1.900109999999999966e+00 1.168512899999999988e+01 1.032030999999999921e+00 2.938709999999999933e+00 1.363702900000000007e+01 2.486591000000000218e+00 2.253589999999999982e+00 1.174212900000000026e+01 3.360691000000000095e+00 3.435239999999999849e+00 1.364972900000000067e+01 8.387370999999999910e+00 1.409419999999999895e+00 1.635052900000000164e+01 8.932271000000000072e+00 3.164989999999999970e+00 1.786602900000000105e+01 1.013567100000000032e+01 1.024820000000000064e+00 1.805522900000000064e+01 1.412957100000000032e+01 4.098700000000000121e-01 1.017972900000000003e+01 1.186161000000000021e+00 1.497051000000000087e+01 1.074542899999999968e+01 1.477087099999999964e+01 1.320921000000000056e+01 1.004012900000000030e+01 1.034357100000000074e+01 2.814789999999999903e+00 1.971642900000000154e+01 1.320177100000000081e+01 5.630840000000000067e+00 1.712842900000000057e+01 1.157977099999999915e+01 7.271539999999999893e+00 1.435278999999999971e+00 1.255497100000000010e+01 6.281740000000000101e+00 1.931572900000000104e+01 1.188797100000000029e+01 1.059171000000000085e+01 5.156919000000000253e+00 1.462450999999999945e+00 1.382020999999999944e+01 1.866492900000000077e+01 1.156611000000000056e+00 1.395391000000000048e+01 3.461929000000000034e+00 1.282857100000000017e+01 1.192690999999999946e+01 8.539889999999999981e-01 1.443967100000000059e+01 1.302491000000000021e+01 2.259298999999999946e+00 1.448107100000000003e+01 1.329580999999999946e+01 1.968342900000000029e+01 1.270841000000000109e+00 1.396800999999999959e+01 1.130039000000000016e+00 1.276650999999999980e+00 5.064449999999999896e+00 1.921672900000000084e+01 9.875671000000000532e+00 1.195750999999999920e+01 5.272848999999999897e+00 8.251970999999999279e+00 1.148080999999999996e+01 6.990329000000000015e+00 1.032077100000000058e+01 1.027590999999999966e+01 6.898928999999999867e+00 1.439797100000000007e+01 1.022960999999999920e+01 1.119628999999999985e+00 1.200737099999999913e+01 9.667109999999999204e+00 1.346109000000000000e+00 1.375647099999999945e+01 8.021309999999999718e+00 1.545128999999999975e+00 8.127410000000000467e-01 7.748709999999999987e+00 1.254332899999999995e+01 1.400967100000000087e+01 8.440509999999999735e+00 1.676302899999999951e+01 1.434167099999999984e+01 4.773240000000000371e+00 1.523822900000000047e+01 1.494727100000000064e+01 7.498669999999999725e+00 1.473412899999999937e+01 1.508347099999999941e+01 5.667659999999999698e+00 1.318762899999999938e+01 8.230771000000000726e+00 1.270091000000000037e+01 7.314990000000000103e-01 1.068587100000000056e+01 1.288490999999999964e+01 1.123662900000000064e+01 1.448157100000000064e+01 1.085721000000000025e+01 1.312132899999999935e+01 1.015727099999999972e+01 9.602009999999999934e+00 1.454992900000000056e+01 1.235877100000000084e+01 1.042721000000000053e+01 1.407252899999999940e+01 1.036427100000000046e+01 1.106381000000000014e+01 1.272362900000000074e+01 1.259277100000000083e+01 1.185900999999999961e+01 1.218792900000000046e+01 3.582711000000000201e+00 6.020959999999999646e+00 9.947129000000000332e+00 2.413231000000000126e+00 6.092179999999999929e+00 1.203312900000000063e+01 1.999341000000000035e+00 7.790210000000000079e+00 1.041112900000000074e+01 7.053290999999999755e+00 1.114201000000000086e+01 1.897382899999999850e+01 4.796031000000000155e+00 1.190441000000000038e+01 1.857442899999999852e+01 6.393091000000000079e+00 1.343241000000000085e+01 1.941552899999999937e+01 9.862671000000000632e+00 8.714209999999999567e+00 1.678102900000000020e+01 1.187767099999999942e+01 8.292609999999999815e+00 1.559332900000000066e+01 1.196447099999999963e+01 8.865610000000000213e+00 1.789102899999999963e+01 3.760651000000000188e+00 8.129110000000000724e+00 8.945328999999999198e+00 1.105887099999999990e+01 4.964949999999999974e+00 7.765990000000000393e-01 1.145937100000000086e+01 4.416850000000000165e+00 1.833222900000000166e+01 1.358930999999999889e+00 7.415899999999999714e+00 1.921442899999999909e+01 7.963109999999999911e-01 7.106239999999999668e+00 1.686682899999999918e+01 1.866881000000000013e+00 9.131209999999999383e+00 1.756982899999999859e+01 1.311307099999999970e+01 1.216201000000000043e+01 1.606732900000000086e+01 2.115209999999999868e-01 1.238720999999999961e+01 1.723772900000000163e+01 8.504571000000000325e+00 1.448780999999999963e+01 8.268528999999999129e+00 1.263587099999999985e+01 1.395681000000000083e+01 9.192529000000000394e+00 1.011797100000000071e+01 1.477890999999999977e+01 9.971728999999999843e+00 1.062297099999999972e+01 1.347800999999999938e+01 7.941129000000000104e+00 1.268307099999999998e+01 1.405570999999999948e+01 6.786799000000000248e+00 1.541821000000000108e+00 1.420050999999999952e+01 1.635262900000000030e+01 1.462697099999999928e+01 1.375860999999999912e+01 1.539122899999999916e+01 1.291611000000000065e+00 1.479301000000000066e+01 1.406112899999999932e+01 5.711560999999999666e+00 2.686949999999999950e+00 6.126189000000000107e+00 1.132217100000000087e+01 1.430771000000000015e+01 1.304490000000000094e-01 1.213597099999999962e+01 1.357511000000000045e+01 1.782122899999999888e+01 4.127210999999999963e+00 4.886449999999999960e+00 2.521879000000000204e+00 7.646170999999999829e+00 1.856139999999999901e+00 1.721319000000000043e+00 5.663431000000000104e+00 3.182760000000000034e+00 2.031848999999999794e+00 6.782471000000000139e+00 2.400640000000000107e+00 3.920999000000000123e+00 4.576531000000000127e+00 3.246230000000000171e+00 4.163998999999999562e+00 1.133707099999999990e+01 5.275689999999999991e+00 5.522629000000000232e+00 1.125717099999999959e+01 5.612399999999999611e-01 4.537778999999999563e+00 1.152057100000000034e+01 1.323460000000000081e+00 6.820039000000000406e+00 1.161667100000000019e+01 2.861670000000000158e+00 5.046458999999999584e+00 1.134017099999999978e+01 3.693979999999999819e+00 7.222228999999999566e+00 2.788340999999999958e+00 5.627880000000000216e+00 4.379858999999999725e+00 4.301250999999999713e+00 5.831929999999999836e+00 6.306979000000000113e+00 5.129750999999999728e+00 6.185999999999999943e+00 4.177289000000000030e+00 9.424170999999999410e+00 1.191259999999999986e+00 3.179349000000000203e+00 1.129537099999999938e+01 2.148400000000000032e-01 2.209689000000000014e+00 9.355771000000000726e+00 4.510500000000000065e-01 8.618090000000000472e-01 6.691561000000000092e+00 5.811749999999999972e+00 5.887758999999999965e+00 7.576260999999999690e+00 3.443119999999999958e+00 1.038512899999999917e+01 6.984310999999999936e+00 3.218469999999999942e+00 8.002129000000000048e+00 8.390771000000000868e+00 1.670369999999999910e+00 8.916429000000000826e+00 7.098380999999999830e+00 9.348800000000000443e-01 7.110828999999999844e+00 4.805951000000000306e+00 1.451401000000000074e+01 1.589802899999999930e+01 8.439671000000000589e+00 1.455991000000000035e+01 1.287932900000000025e+01 6.503620999999999874e+00 1.448301000000000016e+01 1.440612899999999996e+01 8.295370999999999384e+00 1.283830999999999989e+01 1.461842900000000078e+01 6.606301000000000201e+00 1.293711000000000055e+01 1.625342900000000057e+01 1.239277099999999976e+01 7.182979999999999698e+00 1.255622900000000008e+01 1.079167099999999913e+01 3.324730000000000185e+00 1.391222899999999996e+01 9.314571000000000822e+00 5.218340000000000423e+00 1.417792900000000067e+01 1.161107100000000081e+01 5.591879999999999740e+00 1.404482900000000001e+01 1.001687100000000008e+01 7.054039999999999644e+00 1.283652900000000052e+01 3.440291000000000210e+00 1.316829999999999945e+00 1.590472899999999967e+01 3.886220999999999925e+00 3.135330000000000172e+00 1.739792900000000131e+01 5.371370999999999896e+00 1.221510000000000096e+00 1.736532899999999913e+01 9.568170999999999538e+00 1.440819999999999990e+00 1.338232900000000036e+01 9.151471000000000799e+00 3.386890000000000178e+00 1.215512900000000052e+01 7.779471000000000025e+00 1.527949999999999919e+00 1.172842900000000022e+01 5.958901000000000003e+00 3.183019999999999960e+00 1.858012899999999945e+01 7.928071000000000090e+00 5.165499999999999758e+00 2.247368999999999950e+00 4.218191000000000024e+00 7.443279999999999674e+00 9.809900000000000564e-02 6.430741000000000263e+00 6.648360000000000269e+00 9.701689999999999481e-01 1.497171000000000030e+00 1.192760999999999960e+01 7.718129000000000239e+00 2.694561000000000206e+00 8.726710000000000633e+00 4.406219000000000108e+00 2.097840999999999845e+00 1.039361000000000068e+01 6.050178999999999974e+00 3.457520999999999844e+00 8.532709999999999795e+00 6.627829000000000192e+00 3.284520999999999802e+00 1.039741000000000071e+01 8.186329000000000633e+00 4.049980999999999831e+00 3.068299999999999916e-01 3.865588999999999942e+00 5.733111000000000068e+00 1.155260999999999960e+01 2.126059000000000143e+00 6.706361000000000239e+00 1.222330999999999968e+01 4.289409000000000027e+00 4.632770999999999972e+00 1.315211000000000041e+01 3.524268999999999874e+00 6.007590999999999681e+00 1.443801000000000023e+01 4.979548999999999559e+00 9.664471000000000700e+00 5.198809999999999931e+00 3.783678999999999792e+00 1.430630999999999986e+00 1.309220999999999968e+01 5.650808999999999749e+00 1.443177099999999946e+01 1.407690999999999981e+01 5.045549000000000284e+00 1.494247099999999939e+01 1.359501000000000026e+01 7.258328999999999809e+00 4.090830999999999662e+00 1.022550999999999988e+01 3.076109000000000204e+00 4.747721000000000302e+00 9.721310000000000784e+00 8.300389999999999713e-01 3.601170999999999900e+00 8.054309999999999192e+00 2.160268999999999995e+00 1.070147099999999973e+01 7.034919999999999618e+00 8.076829000000000036e+00 6.663320999999999827e+00 6.759599999999999831e+00 1.056562899999999949e+01 6.652541000000000260e+00 6.484210000000000029e+00 8.164929000000000769e+00 8.766771000000000313e+00 6.585749999999999993e+00 9.410429000000000599e+00 8.787670999999999566e+00 6.152510000000000367e+00 6.988329000000000235e+00 3.857670999999999850e+00 1.100400999999999918e+01 1.366412900000000086e+01 4.807650999999999897e+00 6.577049999999999841e+00 1.495962899999999962e+01 4.378010999999999875e+00 8.844609999999999417e+00 1.431432900000000075e+01 3.535251000000000143e+00 7.943509999999999849e+00 1.641472900000000124e+01 2.992671000000000081e+00 1.026280999999999999e+01 1.575342900000000057e+01 7.446450999999999709e+00 9.008710000000000662e+00 1.306832900000000031e+01 7.178740999999999595e+00 5.857359999999999900e+00 1.645242899999999864e+01 6.963311000000000028e+00 8.064909999999999357e+00 1.709352900000000020e+01 7.892971000000000181e+00 7.605459999999999887e+00 1.486302899999999916e+01 6.936651000000000344e+00 9.823209999999999553e+00 1.533432900000000032e+01 1.277257099999999923e+01 8.882809999999999206e+00 1.101692899999999931e+01 1.167417099999999941e+01 6.841260000000000119e+00 1.029662899999999937e+01 1.230527099999999940e+01 8.553509999999999280e+00 8.689728999999999814e+00 1.674390999999999963e+00 1.092670999999999992e+01 1.287182899999999997e+01 4.163709999999999911e-01 1.301481000000000066e+01 1.273452900000000021e+01 2.706671000000000049e+00 1.310890999999999984e+01 1.337532900000000069e+01 6.350140999999999813e+00 4.829810000000000159e+00 1.439392899999999997e+01 8.027670999999999779e+00 5.862479999999999691e+00 1.231212900000000054e+01 5.775790999999999897e+00 6.564560000000000173e+00 1.272412899999999958e+01 1.338467100000000087e+01 1.060680999999999941e+01 9.386229000000000156e+00 5.144550999999999874e+00 5.467299999999999827e+00 1.910882900000000006e+01 7.142881000000000036e+00 4.564790000000000347e+00 1.569989999999999997e-01 1.035197100000000070e+01 7.323830000000000062e+00 4.828948999999999714e+00 8.443471000000000615e+00 7.225089999999999790e+00 3.361778999999999851e+00 9.555070999999999870e+00 9.381009999999999849e+00 3.858279000000000014e+00 2.100991000000000053e+00 3.273579999999999934e+00 7.960690000000000266e-01 2.948090999999999795e+00 1.642959999999999976e+00 2.287408999999999804e+00 6.607991000000000170e+00 1.330720999999999954e+01 1.107422900000000077e+01 8.377470999999999890e+00 9.525510000000000588e+00 1.094782900000000048e+01 7.159010999999999569e+00 1.121921000000000035e+01 1.213612900000000039e+01 7.687670999999999921e+00 1.161841000000000079e+01 9.856529000000000096e+00 8.702671000000000490e+00 9.794309999999999405e+00 8.623729000000000866e+00 4.274780999999999942e+00 1.482700999999999958e+01 1.513239000000000001e+00 3.229710999999999999e+00 1.196949999999999958e+00 1.975252899999999912e+01 4.154270999999999603e+00 1.427740999999999971e+01 1.901522900000000149e+01 5.103710000000000191e-01 7.807409999999999961e+00 6.837269000000000041e+00 1.390527100000000083e+01 9.173610000000000042e+00 5.826099000000000139e+00 1.491997100000000032e+01 9.759510000000000574e+00 7.899428999999999590e+00 1.324757100000000065e+01 1.116721000000000075e+01 7.003328999999999915e+00 9.906670999999999339e+00 8.534010000000000318e+00 1.919002899999999912e+01 9.424970999999999322e+00 1.077060999999999957e+01 1.080389999999999961e-01 9.251371000000000677e+00 8.944810000000000372e+00 1.581879000000000035e+00 9.008070999999999273e+00 1.118641000000000041e+01 2.425288999999999806e+00 1.424597100000000083e+01 1.577479999999999993e+00 1.537752899999999912e+01 1.469197100000000056e+01 1.258350000000000080e+00 1.771482900000000171e+01 1.364097100000000040e+01 3.293299999999999894e+00 1.703202900000000142e+01 8.687170999999999310e+00 1.180250999999999983e+01 1.672672899999999885e+01 9.845871000000000706e+00 1.324571000000000076e+01 1.834632900000000078e+01 1.099917100000000048e+01 1.162750999999999912e+01 1.690832899999999839e+01 8.694610000000000394e-01 1.384660000000000002e+00 4.904918999999999585e+00 7.917809999999999571e-01 2.836399999999999810e+00 6.936429000000000400e+00 2.626951000000000036e+00 1.341380000000000017e+00 6.471638999999999697e+00 2.772571000000000119e+00 2.935529999999999973e+00 8.319029000000000451e+00 1.175837100000000035e+01 1.501941000000000059e+01 1.173522900000000035e+01 1.122087100000000071e+01 1.428970999999999947e+01 1.398522900000000035e+01 1.324567099999999975e+01 4.292300000000000004e-01 1.348512900000000059e+01 1.199007100000000037e+01 8.977100000000000080e-01 1.555412899999999965e+01