-1.058562917670039315e+05
-1.058156560187623982e+05
-1.058390171434009972e+05
-1.057999402277787594e+05
-1.058533054530076915e+05
-1.057813717978528002e+05
-1.058356184252737294e+05
-1.058360176979821699e+05
-1.058494884884184139e+05
-1.058478985522674629e+05
-1.058040849759864941e+05
-1.058440082337517524e+05
-1.057989164901473268e+05
-1.058268095119927166e+05
-1.058239096232338925e+05
-1.058324630847494991e+05
-1.058351911197375593e+05
-1.057929064964725840e+05
-1.058340216902592219e+05
-1.058051596515537385e+05
-1.058533905516529194e+05
-1.058157636123978882e+05
-1.058144701129037421e+05
-1.057938681617161055e+05
-1.058398759940114396e+05
-1.058403792658311577e+05
-1.058084109411055688e+05
-1.057980810091827443e+05
-1.057960122573029075e+05
-1.058206296496646682e+05
-1.058316571824600105e+05
-1.058132241492988542e+05
-1.058422534692783083e+05
-1.058119696899476257e+05
-1.057953208495845174e+05
-1.058066882756716805e+05
-1.058342560536561505e+05
-1.058151107189745089e+05
-1.058366771344439330e+05
-1.058398824541884533e+05
-1.058044372214244067e+05
-1.057977522369301005e+05
-1.058123761558278202e+05
-1.058275203093657474e+05
-1.058411627934124845e+05
-1.058238828469496220e+05
-1.058397126185821398e+05
-1.057815644990981673e+05
-1.058050103903188865e+05
-1.058519829137917986e+05
-1.057890477372949681e+05
-1.058294732355300657e+05
-1.058433653654172376e+05
-1.058172545870623289e+05
-1.058133652048718213e+05
-1.058398407663756516e+05
-1.058472907271196891e+05
-1.058438649893096590e+05
-1.058451532849596988e+05
-1.058172531706227164e+05
-1.058370028927143721e+05
-1.058041053706193197e+05
-1.058189785340614180e+05
-1.058099795145158278e+05
-1.058168464336141042e+05
-1.057898743319876812e+05
-1.058325992488594347e+05
-1.058110526161815069e+05
-1.058513436372750002e+05
-1.058175948508051952e+05
-1.058553676775189815e+05
-1.058322257787944982e+05
-1.058184300955362705e+05
-1.058496754866882548e+05
-1.057985871987248247e+05
-1.058399320123168873e+05
-1.058247485551880382e+05
-1.058280927238530276e+05
-1.058264252597716986e+05
-1.057966510068928037e+05
-1.057898033812702197e+05
-1.058082611643079290e+05
-1.058083912584498466e+05
-1.058502388992933265e+05
-1.058065451998985809e+05
-1.058145199147991661e+05
-1.058356722177183983e+05
-1.058082384297695971e+05
-1.058388452788298600e+05
-1.058201143160993233e+05
-1.058391738205293514e+05
-1.058508137188031833e+05
-1.058222666119783244e+05
-1.058151165511026484e+05
-1.058133801468208694e+05
-1.058278980406363407e+05
-1.058447941209211713e+05
-1.057909001552888367e+05
-1.058199912647828605e+05
-1.058002310888220236e+05
-1.058545332243028242e+05
-1.058031908974735998e+05
-1.057898532603823842e+05
-1.057951191122916935e+05
-1.058055699533148145e+05
-1.057860898919060564e+05
-1.058518767457781360e+05
-1.057972406614776264e+05
-1.058322217713581194e+05
-1.058470138333714567e+05
-1.058250171224001824e+05
-1.058314281298802962e+05
-1.058421619426241377e+05
-1.058451240323792881e+05
-1.058248158285235404e+05
-1.058214433100247697e+05
-1.058328788203887234e+05
-1.058288455820666131e+05
-1.058438190582696407e+05
-1.058012084679869440e+05
-1.058372794770167820e+05
-1.058328830858651781e+05
-1.058534973595500196e+05
-1.058497376688041113e+05
-1.058298564909814158e+05
-1.058010154479713965e+05
-1.057996444409789401e+05
-1.058474771413703129e+05
-1.057943138636658841e+05
-1.058477336368175747e+05
-1.058263602761992806e+05
-1.057875311354128644e+05
-1.058404782475739339e+05
-1.058401543288771645e+05
-1.058470697335813893e+05
