6.354620827969166275e-01 -8.735837933215634399e-02 7.084119988222062902e-01 1.631484904103660538e+00 -1.275488388303031906e+00 8.863868596818190726e-01 2.692839976359752141e-01 8.003279159947894461e-02 -3.277524310185820355e-01 -6.973773373624616578e-01 1.707679038366032076e+00 1.492741995404436084e+00 -1.842646538871144823e+00 1.057102981496473637e+00 -1.614689428424542994e+00 1.097609172488925172e-01 -1.055303723355476953e+00 1.953527942970346487e+00 1.490513877220686956e+00 -6.337137325027214496e-01 -4.335692756920403457e-01 -1.106360694152720869e+00 5.170802559356180161e-01 -1.303098953213770450e+00 -1.313961864968144155e+00 -2.544628722376111263e+00 1.807064010839551482e+00 -1.786710128091072214e+00 3.782818114035189638e-01 1.164736053593195653e+00 5.360693970132756059e-01 9.240617516390240427e-01 -5.101686158461250092e-02 5.838363839333844396e-01 6.996717900132553014e-01 -2.510960123695986645e+00 -2.327774150518323315e-02 -1.108648461934742757e+00 1.619563726200624054e-01 -1.621949195910850960e+00 1.747828360210197829e+00 3.306696049065140780e-02 1.079337883473237003e+00 1.879131524186947289e+00 1.570154318445321495e+00 2.295943890750477556e-01 3.075810966096436880e-02 2.332459215086091664e+00 -2.006636140039220972e+00 3.757934975583396287e-01 -8.927169161881548520e-01 1.469814952399441488e+00 -1.756135080990323116e+00 -2.524725811159398980e-01 5.536536872074800941e-01 2.308227080008547816e+00 -1.041588943738866346e+00 7.024501243190011124e-01 2.752273601948889148e-01 2.228154179196436824e-01 -1.014197436835576754e-02 -4.011949704502951186e-01 2.253988625896543030e-01 1.345191000767191891e+00 6.562761930493089535e-01 4.677531234882775779e-01 -1.156785173520006316e+00 1.972447664256911024e-02 -1.091777910037109667e+00 -4.185787145813418264e-01 5.743042752852978161e-01 -2.211133474861773363e-01 1.810734518016011263e+00 9.167845006497744587e-01 1.834401524571990461e+00 -1.482379934587281789e-01 5.196662717090023698e-01 -1.210881702725775805e-01 -1.202162576964490137e+00 -7.120619371716760404e-02 -7.446511866554723635e-01 1.249101668598229908e+00 -1.183718509802081487e+00 -6.636989684895167052e-01 -4.692356216936200974e-01 -1.215729261026769370e+00 8.810091398651449801e-02 -1.071620459586390128e-01 7.935453452946621133e-02 1.383100891572763391e+00 -1.407725891245826588e+00 -5.127957692734904649e-01 2.782178619510421225e+00 4.440053842863607159e-01 -4.370124973302552118e-01 -1.766092450136439229e+00 6.500325256163335119e-01 4.911789605477926424e-01 -6.993709709185187695e-02 -1.337364047876620221e+00 -2.901541579419167904e-01 -4.334422631853738772e-01 3.083040908783608036e-01 -6.048052746088805609e-01 -4.146968627075540148e-01 -4.738075577129402527e-01 4.918027102262804706e-01 -1.904507286045164616e+00 4.788937144070235831e-03 5.477200948413868398e-01 -1.214791322516000971e+00 -3.715984852936208838e-01 -2.319321905287239804e+00 -1.881590013232990743e-01 -1.137230903920783742e+00 1.805905985879984632e+00 -6.349782011419643490e-01 1.525212459912362206e+00 4.030718759131809992e-02 5.976128700309668584e-01 3.573967386980091976e-01 9.973618519438276486e-02 -3.192806454018573548e-01 4.358657852255330423e-01 -9.585340772338035720e-01 4.695708935735657535e-02 3.608960103897732030e-01 -4.585588578235104684e-01 -6.894886779909185082e-01 -4.939259273923780613e-01 -9.918164961871808183e-01 -3.946155169166992160e-01 1.838652586890258400e-01 9.737868908886313513e-01 1.955828052048562415e-01 -8.306319687999379475e-01 1.204304820295553843e-02 -2.211652837743284250e-01 7.780750162944094495e-01 5.282136477649173045e-01 2.431029662010785949e-02 -7.228991378923117495e-01 -6.948304023603592283e-02 -9.595296084601450115e-01 -2.968673088509511948e-01 1.112441867852471455e+00 5.879537488762138775e-01 1.520332505708858806e+00 -6.324775460005905847e-01 9.952998270380271351e-02 -1.814803031994738358e-01 -3.395769354347632496e-01 -6.122007963533258046e-01 -1.035825558416119563e+00 3.283247586295935661e-02 -1.632644471725251956e+00 1.128693298057689587e+00 -2.910303899717134324e-01 -8.804794925701387998e-01 1.609096764365817833e+00 1.294199850216317227e+00 -5.742014311503451651e-01 2.006720472229881924e+00 -6.898620022007965202e-01 9.990531237431239386e-01 9.316552483432531950e-01 -5.168066905366439645e-01 1.260370814685666696e+00 -1.432271700934975911e+00 3.208418193704385968e-01 -5.996039324836501816e-01 -8.237244424758430883e-01 1.184405508623565417e+00 -7.965411949458328644e-01 -1.248692348941118219e-01 -7.061854233004815073e-01 6.051204918825104917e-01 -5.185915504987472779e-01 -3.611145541765475864e-01 -8.794201979801265223e-02 -1.227792363836040401e+00 2.374290552757407635e-01 -1.123152056066440529e+00 -8.207594460651581603e-01 2.005676604260112905e-01 1.370809474783897253e-01 -1.806615610411157702e+00 4.735314212105923293e-01 -2.619019484732088010e+00 1.273951896926839078e+00 1.470439730519278732e-01 7.018495145708776584e-02 -1.552493923591252156e-01 -8.510866388006708971e-02 -1.692953300902836578e+00 1.774583776138804803e+00 -8.899349823376855317e-01 -8.250840419399171344e-01 -5.295603917121223247e-01 -2.128050840440273705e-01 -9.199423298134956628e-01 -1.412801249305739804e+00 1.344440238582037261e-01 2.360977379487787076e+00 -6.317807769862864298e-01 -1.235548868494169422e-01 -1.693260804866344893e+00 4.485310404449522337e-01 -2.235068904609978091e+00 -9.477884077932757778e-01 8.380048648346935525e-02 3.941316352617469931e-01 2.282368464936727556e-02 5.753147189112075566e-01 -1.775172044590734299e-01 -8.732958297436960171e-02 -3.149056559009715262e-01 -2.132092614943912334e-01 2.150727972197332694e-01 -3.055118726143963848e-01 4.895709924978078886e-01 1.369299208662117628e+00 -9.433224012329567698e-02 5.091535442341424966e-01 2.742464328357105074e+00 -1.184794773674360924e+00 1.249912594602331728e+00 2.237567502868653246e+00 -6.954058152954193384e-01 -7.066163402259331150e-01 2.812797375368524810e-01 3.212058876081709813e-01 -1.372767112892721020e+00 -8.173018262480500340e-01 -1.693369819649394592e-01 1.979506371459386349e+00 -6.942570463079981158e-01 -1.110602500498843126e+00 3.033593448698373440e-01 3.737967786782338542e-01 2.009294146707072404e+00 -1.405856699093061879e+00 -3.968719172375603788e-01 -1.982567527136251950e-01 -9.419062374946587379e-01 -9.489304919119248005e-01 -8.055724526566998556e-01 1.899278176003497576e+00 5.844791597768383973e-01 -8.828443934533750648e-01 -8.789676837863348580e-02 -8.698875751113651633e-01 -1.824439527439802033e-01 4.169902869169981874e-01 -1.055936729006110575e-01 -4.198796928884928614e-01 2.419117225859219733e+00 -4.793570272349853001e-01 1.187551510711766789e-01 -2.064801697444392237e-01 1.224359426611321090e-03 -4.366797965536833304e-01 -6.821281232523572768e-01 1.506347760237997380e-01 3.641392001855051075e-01 1.846979876497374606e+00 -1.740107336778627278e+00 -3.334206855164975614e-02 -1.886545043655009302e+00 -2.594027331497243960e-01 3.414173312297409391e-01 1.427344438429394291e+00 -3.211431526858499197e-01 -9.343029705976091392e-02 5.968456527842200821e-01 3.645175123359284619e+00 6.050428445606211847e-01 -9.239558221800229232e-01 9.900851151752529944e-01 7.985934496588130704e-01 -2.170139802669646123e-01 -8.491927640555179124e-01 -3.295995116823317583e-01 3.148876581773548677e-01 1.143589242564231556e+00 -9.771493798809082199e-01 9.215646960423736767e-01 -1.183745249277169398e+00 1.606019153627359919e-01 -1.147404245750300200e+00 -9.959498019709277505e-01 -3.502809530006352201e-01 4.968518430317809820e-01 -1.112133849668288210e+00 4.894012996751360700e-01 5.570136050963833130e-01 9.114407193976346022e-01 3.895375877534119902e-02 4.001212776813893868e-01 1.041983865217084304e+00 -4.827786516048600540e-01 1.317603061566142930e+00 7.525876685497685792e-02 8.980375575099301955e-01 6.002929881878329432e-01 2.672656814875293829e-01 1.281812274161270526e+00 1.229230639063353392e+00 -1.914433287730120226e+00 2.511186380792883033e-01 1.287243472928120136e-01 -1.227190211425892574e+00 -1.269621130403983111e-01 6.194250826130747178e-01 1.572985617480568088e+00 -1.716175506575145393e+00 1.140438612489956954e-01 -4.913908194657951589e-01 1.208880870080272008e+00 -2.148514766413152088e+00 2.967317602810835897e+00 -1.263317813372734966e+00 -1.072315171717995064e+00 4.846139051930901109e-01 1.513917088570512250e-02 1.433852929509872760e-02 -3.451972131437232250e+00 6.855728875525962662e-01 -1.490401777113588566e-01 1.498309976870772608e+00 -7.794690685436926891e-01 -1.655934554526629354e-01 -1.013129400494093613e+00 1.859679070281328173e-01 5.118316055083095284e-01 -7.438618579197107117e-01 1.492308507375610827e+00 -7.320975173224768540e-01 -7.423670184181739851e-01 9.315729730352909632e-01 1.688741833576525575e-01 -9.285215875512458084e-01 -7.486147996165475327e-01 -5.499723813968498964e-01 -1.255930004938411226e+00 -8.148032279893752117e-02 -4.031932319924251273e-01 -7.601323142898950280e-01 3.914350620432884009e-02 1.961341526123373979e+00 -8.597378874328879261e-01 -5.478666477336944229e-01 -2.218034316317096244e-01 -2.412925494714395658e+00 -9.855980255672684986e-01 3.819759727310182984e-01 -9.593043798045988169e-01 -7.968127034621078630e-01 7.840975688372366914e-01 -1.301716728040006821e+00 -5.892202743981557189e-01 -6.001058118622192294e-01 5.086089845395680431e-01 5.197727153886784190e-01 1.525412491754845057e+00 -1.463713724093375523e+00 4.339251163989765736e-02 -1.627127912326391757e+00 -6.745459394029729161e-01 -1.354540561075737282e+00 5.068338947702852870e-01 2.600549192315266378e+00 -1.121638704620612215e-01 -3.809295336578750746e-01 2.818803472849759628e-02 9.020129975465249750e-01 -6.574362748915750787e-01 1.096160612848116944e+00 -6.880529738669793893e-02 2.070668955343440976e-01 2.547973727865446847e-01 1.110585016995901286e+00 3.421711787389438708e-01 5.204468586932931018e-01 -6.446455498275136531e-01 6.988557218024060713e-01 2.546053113645205368e+00 -6.995447775065888329e-01 1.993633556057157214e-03 -3.134211008129300646e-01 1.004850447630404986e+00 -9.471687718801857780e-01 3.732959277410144439e-01 -3.428910876836124277e-01 -4.263753284521023534e-01 -1.078487362477178690e+00 1.908360341561166074e-01 2.181118414075841616e-01 6.848195542640680422e-01 1.222359108186491794e-01 -4.017976370811176534e-01 -9.478516569362714916e-01 7.256101092896635185e-01 -8.284218483398055888e-01 -3.930481723000207595e-01 6.352589656303850862e-01 -1.334236557732709993e+00 5.330468078870171933e-01 5.477329503582559767e-01 -1.988298002335813663e+00 -2.764558333868983864e-01 3.812900023508841163e-01 -2.146346297827675276e+00 -2.396268344396789568e-02 1.784044408113099278e+00 -7.929483350912620576e-01 -7.472397735322307277e-02 -6.658077874767208415e-02 1.364267559359559234e+00 1.622693787447908154e+00 -1.464685601168677909e-01 6.298689045175166236e-03 -3.596927340108271864e-01 1.902495654765491206e+00 -7.744908981913095625e-01 -1.210348455886046448e+00 5.657671836428782575e-01 6.809922097818050801e-01 -6.476979637529083345e-01 1.233570147337680556e+00 1.257440785280865558e+00 7.465152366014891072e-01 -3.211508659959713685e-01 3.272752342324017905e-01 -3.433225188297387986e-01 -1.832387322188943068e+00 2.027625599541707846e+00 -1.539445573969134395e+00 -6.173440315423078806e-01 7.527882146129261098e-02 -1.470424303899035834e-01 3.319690405516408371e-01 -2.778473145328077543e-01 -5.542810364306912652e-01 -7.375276876479769372e-01 -5.880828182655792880e-01 3.488663319243615057e-01 -6.830094974889013848e-01 -3.083832808622744004e-01 -2.641705872461293236e-02 9.416362716404080846e-01 1.547567689527020174e-01 -4.940781367121078738e-01 7.919754295746099793e-01 -5.155453072214496446e-01 -3.955477990000449973e-01 -5.580703285830217464e-01 7.903422647115617705e-01 -6.331640306013995856e-01 -5.551392707368711932e-01 2.613130629564698326e-01 -1.990034011333814538e-04 -3.107029303261314435e-01 1.902523936902602797e+00 -1.071255362907308079e-01 9.719675781413188442e-01 7.631199364102696503e-01 3.054753629464881381e-01 6.372088904290874600e-01 1.023735201911085690e+00 -1.442286662796665064e+00 -1.345961817558661844e+00 2.213910266505494939e-01 1.454730288905261041e-03 -1.044056688757055040e+00 -2.736286481170499552e-01 9.997617198329479260e-01 3.929011051870384685e-01 -3.354354021202199387e-01 5.812441975119028020e-02 1.689547617373879262e+00 6.559887436921163495e-01 -8.499944340874737714e-01 1.516664055415097634e+00 -7.260060592092313358e-01 1.446903336014689678e+00 3.317499825441916350e-01 -1.255981941226562260e+00 1.793447447371820241e-02 -3.907732600348681196e-01 -2.003264909295473239e-01 9.607318563977417236e-01 2.669957156332786741e-01 6.614420539479806682e-02 -2.442645907053687948e-01 1.297319112829431242e+00 4.252661544566380680e-01 -5.729055950499417627e-01 -1.690784318096685279e+00 -9.307363359974510919e-01 5.849923520102522367e-01 -1.123402481535050318e-01 -7.832218510281149237e-01 2.943018619045572604e-01 1.949914514288784706e-01 1.517706380722842807e+00 -5.312825167519045350e-02 -1.024610405499532639e+00 -6.114957998082253682e-02 4.895884760007498948e-01 -6.239383974754719731e-01 6.011640780108818971e-01 2.053164883574499500e-01 1.230425173690828489e+00 7.001479583580860755e-01 -5.503379922966065152e-01 -9.203927871245882741e-01 -1.961947792298919913e+00 -9.178489374465342854e-01 4.960995381846023539e-02 -6.541864002270710854e-01 -1.181560325630100161e+00 -8.617993981180137597e-01 4.518205101014128311e-01 8.306083146488987268e-01 -4.060759530951479901e-01 2.677747599555450608e-01 5.283884827943369222e-01 1.102861422460956975e+00 -9.640840609765232161e-01 3.375473064314726823e-01 4.539267579852430678e-01 -3.927823202111681566e-01 4.909475612441491776e-01 -5.734465551997927069e-01 9.745386815151352300e-01 -6.194610780603082567e-01 -3.707330518979943257e-01 3.260868702530238528e-01 3.175101836186474125e-01 4.356580400729286873e-01 -9.571225414815781596e-01 1.252425591039899588e-01 -1.878288716501010480e+00 -4.593173333187863111e-02 -8.929308319888563661e-01 1.130281725722033004e+00 2.979677410949445604e-01 4.050151158431113396e-01 -3.203101151927333912e-01 -4.671946798354846830e-01 -2.393131598280733296e-01 -2.548117709654379795e-02 -5.188106085061963135e-01 -8.904620585293179236e-01 1.073889715424120039e+00 4.883512610572695034e-01 -2.031906486659111888e+00 1.429201803506639168e+00 -5.638969630487642437e-01 7.799004996898191155e-01 -2.476872435165930197e-01 4.646091782827750372e-01 1.101084275808975166e+00 -5.185298440177756041e-02 -5.432638584738885140e-02 8.888463771692118875e-01 -3.409565895051530626e-01 -2.208063577433436522e-02 1.224390279851806790e-01 9.326986020923476450e-02 -4.943614723039024134e-02 -4.967006621534005295e-01 3.715758595839313647e-03 -9.180535972750901441e-02 6.824968194761623641e-01 -6.797123145223193941e-02 3.984233210133211051e-02 1.403844553592713540e+00 6.145914082703002324e-01 -9.437260644626458417e-01 -3.053164687579863479e-01 8.357443507484341172e-01 -1.400526287578466034e-01 1.139749556785774193e-01 3.775906988166371492e-01 -1.436547445845632320e-01 5.876513871194530836e-01 -4.462288744840370303e-01 -7.785470708738422285e-01 1.786169167941221270e+00 -1.189546686929848253e-02 -2.999783439332689428e-01 9.336139148934263776e-02 2.370212782806535023e-01 1.070449064889279045e+00 -3.694284740461199479e-01 1.110389098918816542e+00 -2.395373600422701366e-01 2.944535570036124206e-01 -3.311581145475390921e-03 -4.890598571470933242e-02 -1.532840409401800275e-01 -1.031619747517230845e+00 -2.424205953656677626e-01 -1.452621984138731948e-01 -5.342397998524680558e-01 -2.585727809806565025e-01 -2.826357374562031843e-01 -3.164051233885812331e-01 5.350934061725750590e-01 -1.173477290843496362e-01 -1.439031131704738842e-01 4.309565204435682473e-01 6.808590266270414526e-02 -4.563811332658881253e-02 -4.623975151606182221e-01 4.779496052481582713e-01 -4.018624288861377680e-01 1.696701969621860484e-01 -2.374007731386288123e-01 8.150048024938825186e-01 -2.088908362677293629e-01 2.801381676388780551e-01 -6.812374930436672082e-01 1.306351913202322690e-01 6.056645373564099877e-02 -8.018628647089578454e-01 -2.546857869001210029e-01 -2.963145216255806957e-01 1.449162821659599309e+00 -2.168468585476665631e-03 8.732012131395395782e-01 -1.426062486287209552e-01 6.204339835769603351e-01 -5.474547569732090002e-01 -3.992995530431177609e-01 4.067722078887773818e-01 -1.268068183966197977e-02 1.709403220288513159e-01 -1.007577359868674582e+00 5.416425206863598740e-01 -1.747788250997566406e+00 1.502923050544074102e-01 1.008858283569509906e+00 2.803531118809290956e-01 1.304370620942459924e+00 1.136536706009853237e+00 -2.241580481014505688e-01 4.776564994635432160e-01 -3.831982752749305554e-01 -3.577114417509643096e-01 6.512877382834305617e-01 4.056666334380364392e-01 -1.075523394507843289e+00 -1.498541890395091170e-01 -3.401724029761390988e-02 -7.722190712502053911e-01 2.147236413815690470e-01 -3.244058828672227723e-01 -1.541798647776851272e+00 -3.202962312345147833e-01 1.718973381266532208e+00 6.192286503153152655e-01 1.024583151803770464e+00 -1.562815360975100321e+00 4.004143834660044421e-01 6.805448377947610483e-01 3.245848316620403851e-01 4.169923437996972404e-01 -4.697385295135385053e-01 9.533651310110830219e-04 -4.001948112378805322e-01 3.991591707989073368e-01 -5.043286116428387089e-01 1.442209015474775757e-01 -9.319786931476792269e-02 2.482477440520849954e-01 1.779568631359960129e-01 -9.612687027821945063e-02 6.803525192623995910e-01 5.490637534645432805e-01 3.825986939681565446e-01 1.700611589412085678e+00 -1.222095312980338466e+00 1.009929405235041738e-02 -9.139496020698045786e-01 4.179148556902224643e-01 3.789379569845169882e-01 -4.989431785160430843e-02 2.848828818049186640e-01 -3.541844021427631439e-01 -2.852382082911800783e-03 2.895998280545220571e-01 2.720217085084147279e-01 4.428915823048235056e-01 1.536398302250487236e+00 6.036091973193812299e-01 4.696896785494359960e-01 -3.973917943397460295e-01 -6.089020707247194686e-01 -8.714178958394606100e-01 2.221146379840762908e+00 -5.980077915091850521e-02 2.752767768017336802e+00 2.535935821869238493e-01 5.435888459403388495e-01 -9.718318238831812339e-01 -8.862341361414144414e-01 7.406762608395522918e-01 1.384405469424637936e+00 3.682030861781591113e-01 -6.378598938033376298e-01 2.656613129822679720e-01 3.711999642706794167e-01 -3.288842307237360152e-01 -7.245117339283692059e-01 2.468002128526263980e-02 -6.736496527668605072e-01 4.300741177656745573e-01 -3.515279381369361689e-01 2.320107120257603184e-01 -6.341323081319787391e-01 2.490936370620705220e-01 -2.266371059744842209e-01 -1.302989424210045710e+00 5.545191206031067077e-01 -3.617059079525253851e-01 -1.252912558018900668e+00 2.243107716418552833e-01 -2.100971979707240145e-01 8.210381536708797334e-01 -6.718169702820042666e-01 6.467044894092657259e-01 5.307785804906364202e-01 3.740549174569650082e-01 -1.557584708271408380e-01 -3.291084309379327943e-01 3.173415192373251759e-01 -7.251437111376533851e-02 3.635992684770036898e-01 -7.591424394909758178e-01 5.272942211984406047e-01 1.154575567280548443e+00 6.681629181671365492e-02 1.193385858487630902e+00 -8.875731667784979573e-01 -2.288940205160202024e-01 8.243322513134132556e-01 1.652449166793084068e+00 5.338998999864494888e-01 2.501616734035538858e-01 -9.284737650284928812e-01 -1.532553988485957142e+00 -3.939789117213422509e-01 5.733802207327483025e-01 6.661728841558026692e-01 5.332288420058833855e-01 -8.734470106220764141e-01 -1.043245248532278513e+00 1.767371316954575444e-01 -1.275491987847755304e+00 2.044317202644523324e+00 -1.592100742623542731e+00 -2.429986308261690819e+00 1.975301589001846880e-01 -6.413941325009855365e-01 -1.004543972108246308e+00 1.002843958557478654e+00 3.359064282583030803e-01 9.904836361981943504e-01 4.077980781349301309e-01 -4.001151070332922277e-01 -1.425112206480247057e+00 -6.799766239491477071e-01 1.908247213012718158e-01 1.252718696824514921e-01 1.558432143943418113e+00 8.898074556103443417e-03 2.086661732549253134e+00 -3.784293927371760735e-01 -4.512394407389302975e-01 1.457496796135487604e-01 -8.199701173293963974e-01 6.915615015308891333e-01 1.409146168749522587e+00 -9.681767433269641288e-01 3.088136835670511893e-01 7.840394619009883881e-01 2.798787947305274582e+00 -5.512414780221657207e-01 -1.616922174594365380e+00 4.818114025156303715e-01 2.496628793490334453e-01 -8.534618240974024550e-01 -1.525199604395493180e+00 8.806975221362384199e-01 1.256688480433687305e+00 5.142679830653377193e-01 6.823929468998601866e-01 -1.435535459557698346e+00 1.580081862792301062e-01 -2.090656712971489251e-01 5.685619730102166036e-01 6.961365228742578959e-02 -1.459188582155458880e+00 6.574614717046383117e-01 1.991144727991303043e-01 -7.353854443169132171e-01 6.860629398556455927e-01 1.478053796050498470e+00 -2.728228643196959347e-01 4.425527108801544651e-01 3.179529276196186305e-01 5.139795052667955888e-01 5.299558274110153198e-03 -4.722314713447907653e-01 7.602984075678436149e-01 -2.700239611869594825e-01 9.214114582812941989e-02 7.960902234140654343e-01 -1.493224848618038836e-01 -8.064476562451471375e-01 -2.099659688545244318e+00 3.780195588593897593e-01 6.208787844606306061e-01 7.585850242795323384e-01 1.974843932601307583e-01 -4.737304246117257644e-01 -2.670121706948711093e+00 1.582971782984470499e+00 -7.079481717735698620e-02 1.866621049390632114e-01 -2.191968470313346642e-02 -6.645134940383417010e-01 6.532916562529830773e-02 -1.249483734559579062e+00 1.517877101986864208e+00 -5.399677039486559110e-02 -3.989488545429291655e-01 -2.044135168525656798e+00 1.283506117063940577e+00 -1.357362604138838136e-01 3.832347849428387465e-01 -1.917714015635109681e-01 9.333151526813889820e-01 1.434407773617942361e+00 4.080109654942821185e-01 -1.884272702493230423e+00 1.481983984667714117e-02 4.638476174634506011e-01 4.480759551477866420e-01 4.370726611492025127e-01 2.341442136053530632e-01 -2.157088881944154435e-01 2.617064417726637782e-01 -1.407376735407662283e+00 1.435812110280720866e-01 6.095093653416148172e-01 -1.972226549366762616e-01 -1.030581535974883778e+00 8.309173612744314985e-01 -1.130128487960953693e-01 -5.806168482886915616e-02 -9.488389606318170522e-01 -6.755975206828638280e-01 -1.867727652282722861e+00 8.745453859833707266e-02 -6.989621654820820096e-01 -2.850068089875366084e-01 -1.488519729443955053e-01 3.792007237493209559e-01 1.229254807435067182e-01 1.443134098468675131e+00 1.970185093287952771e-01 1.219538607785415563e+00 -3.187617967410212305e-01 1.908992832991124600e-01 -2.604908240975234435e-01 -1.049345962617669770e+00 1.321413436766138705e-01 -4.062358757249993624e-01 -6.904831807759106432e-01 -6.857724051744042981e-01 1.798707410653973771e+00 -4.121149606995676562e-01 -1.267850668620773336e+00 7.923076161305070420e-01 7.506521419299596598e-01 -3.266705107188801471e-01 4.801633252530140838e-01 -1.227547594794853314e+00 4.364550821188118435e-01 3.242168553471798109e+00 5.606923398036396389e-01 -5.295305669129860560e-01 -3.991488863854121272e-01 -2.927689700730879974e-01 2.680282707482032900e-01 -1.485119188121745593e+00 -1.378111408365535577e-02 2.480831934361607816e-01 1.933473850875254252e+00 -6.930686823286202891e-01 2.845810342688326888e-01 -1.286274166956191234e+00 -9.208766687795404415e-01 9.102271586051934038e-02 1.241397614448926712e+00 1.056727086183221642e+00 1.244172349209949485e-01 6.043738434627542455e-01 -4.552431629126369450e-01 -2.097788953730455597e-01 8.571595849696249381e-02 -3.858197722748736291e-01 -8.948833278909322786e-01 7.325680292398852878e-01 -5.553583287443203311e-04 6.820571607992398366e-01 -1.972560792805358731e-01 1.968436742993757427e-01 -1.000626124787224791e+00 1.001762038257776988e+00 5.163680603010709635e-01 6.427527035237100561e-01 -3.767057250353696429e-01 9.008853116067692124e-01 3.470089668471166289e-01 3.977291231023907803e-02 1.281890435703834374e-01 1.163793487096354662e+00 -1.782083170459552168e-01 -1.351275774011665431e+00 -8.082777676266296452e-02 1.471496968226591928e+00 3.319808676271603087e-02 -9.020695618207489330e-01 1.199584788721901774e+00 5.708687669572044543e-01 4.059350566302628582e-01 4.048212546487255370e-01 -2.635946600903944781e-02 -9.698536169473671587e-01 -1.002083426179503745e+00 7.366380858806365062e-01 2.749301406448758089e-01 1.416040325336073602e+00 6.202622338715894079e-01 6.868116451581008919e-01 6.960789301586842726e-01 -2.563991701884321683e-01 -1.210380851788556367e+00 6.734208245665909143e-01 1.928692627041305396e+00 -2.126021211436982750e+00 1.279159923920841768e-01 -7.377986819435770893e-02 4.760598442684033094e-01 7.207378683962817334e-01 -1.507088238009656467e-01 4.243786095719966900e-01 -3.706091247153764368e-02 -3.422508829435321753e-01 -9.193324640932263314e-01 1.432219764646824656e+00 -9.963169555327088256e-01 -2.874544993994097020e-01 9.443431292723618586e-01 -3.496947414314051095e-01 -3.599606429823788423e-01 9.121863393760414052e-02 8.236262263269632511e-01 -6.068405600395936350e-01 -3.929766956262286670e-01 -1.558767415823363867e-01 2.883333025325801047e-01 -1.164209491622238302e+00 9.600962796437342850e-02 2.111801467117754294e-01 1.179622227906917476e-03 -5.936163469467068410e-01 -1.522597133560516180e+00 9.989425662980498943e-01 1.849623484986332667e+00 -1.843300627569443684e+00 9.010514048847176882e-01 -5.088043883959780800e-01 1.056919918936257918e+00 -1.659180315425734964e+00 1.044003724027554370e+00 -6.993925681868587985e-01 6.483515382305324870e-01 2.084727748591468643e-01 1.975687254507919530e-02 -2.412881271736365907e+00 -3.512194057320782159e-01 -4.565801366670214634e-01 3.465615948600725971e-01 3.415155473786207208e-01 -1.394471339133128707e+00 -9.802521874324297002e-01 1.008910219857661161e+00 -5.131999467238543833e-01 -6.515731307579243348e-01 -2.754073374310561095e-01 1.128524633676367017e+00 -1.321408294559390795e-01 -3.953513667022853784e-01 1.043503387311009778e+00 6.967962679999790687e-01 1.276651555469346500e+00 -1.469865860246242883e+00 1.948520976260176563e-01 5.142330160594539290e-01 -1.395263238972264119e+00 -1.578210099536162814e-01 -1.855077309462871638e+00 8.332277547661429695e-01 -1.205787832721570974e+00 3.315813181628692874e-01 -7.506619121227801061e-01 -3.323433932028684312e-01 -6.584055808635036477e-01 6.941151214017635684e-01 4.256389644458413168e-01 -1.495137749528158144e-01 1.801505285345360585e-01 -2.196894704377578278e-01 2.843774028816263844e-01 1.032749490339685439e+00 -5.145348635955399041e-01 -2.590345511465939055e-01 2.418215282795685150e-01 -6.319736097393225949e-01 -1.000385469511435726e-01 7.811181742476585033e-01 2.187664443265577852e-01 -6.803021256362727920e-01 4.149755703132757545e-01 3.262524493102976209e-01 -1.072651986259965273e+00 6.502526120651321850e-01 -1.077558165717881211e+00 -3.618005245566818101e-02 9.036518188369955240e-01 -2.927591998802675510e-01 -9.028496345843648463e-01 1.545239298311692044e+00 -3.382435612251020740e-01 9.859461529640832500e-02 7.268972036385959457e-02 1.739577689483621237e-01 -1.171812758519287900e+00 1.038567383053957016e+00 2.135234503266715822e-01 3.630881331262889589e-01 2.728917698901141553e-01 5.116341447692004385e-01 -3.224076213250927081e-01 -1.065415358704021820e+00 -1.698906433654570725e+00 -1.993921519635024620e-01 1.861802801668100693e-01 5.343339022359496759e-01 -1.577022249777459528e+00 5.992789450171999155e-01 1.870529126518832852e-02 -1.088812913626424850e+00 -9.699955418536017060e-01 -1.027383083377856332e+00 -5.559753935540362457e-02 9.079594454294874148e-03 7.046818420474737499e-01 -1.358472292354977240e+00 5.207754457044667662e-01 1.181623574773096097e+00 -8.520677718481192153e-01 -6.229649777381451869e-01 -3.246408817155896354e-01