3.439225622113965386e+01 1.395923217947218076e-01 8.946951112252582661e+00 1.395923217947218076e-01 1.067085838103888484e+01 -1.411133228960553865e+01 8.946951112252582661e+00 -1.411133228960553865e+01 4.903757976102196103e+00
6.836617419262669415e+00 -2.153122213234643212e+01 -2.539732733774925588e+00 -2.153122213234643212e+01 -3.666639373644800415e+00 -6.468695225920805036e+00 -2.539732733774925588e+00 -6.468695225920805036e+00 -3.450196857459195598e+01
-1.221395444147471565e+01 -1.140658777831847459e+01 -2.743135111661264780e+00 -1.140658777831847459e+01 4.735571046587703847e+01 -2.502018644954225124e+01 -2.743135111661264780e+00 -2.502018644954225124e+01 6.212288397230101289e-01
-2.055884284200265455e+01 -4.446247991157620483e+00 -1.466436363269633558e+00 -4.446247991157620483e+00 8.140923537526781217e+00 -8.406308602944418951e+00 -1.466436363269633558e+00 -8.406308602944418951e+00 4.749119602323830236e+00
4.466798240382627405e+00 -4.460154345204697002e+00 7.478653676631759950e+00 -4.460154345204697002e+00 4.384030963150997451e+01 -1.202945904058973525e+01 7.478653676631759950e+00 -1.202945904058973525e+01 2.496654332606220095e+01
-1.930828718954413104e+00 -1.816406897984900848e+00 4.035050130341678809e+00 -1.816406897984900848e+00 -2.103248504731723756e+01 -3.565552075178148783e+01 4.035050130341678809e+00 -3.565552075178148783e+01 -1.893379190730767192e+01
-2.322122990169793511e+01 -1.190392091636169347e+01 1.279489252340393612e+01 -1.190392091636169347e+01 -2.570167738411150893e+01 -1.520771405750438010e+00 1.279489252340393612e+01 -1.520771405750438010e+00 1.643881894070553074e+01
-1.179801057709936707e+01 1.953371343702425023e+01 -1.386202789758364418e+01 1.953371343702425023e+01 1.953085541220369947e+01 -2.475442894307427366e+01 -1.386202789758364418e+01 -2.475442894307427366e+01 8.829395971632910900e+00
-8.924812253254660988e+00 -1.164320453404206290e+01 -7.527823825580945538e+00 -1.164320453404206290e+01 4.420033125975726307e+01 6.720155810882830316e+00 -7.527823825580945538e+00 6.720155810882830316e+00 4.090822681986758624e+01
1.286813369321069800e+01 -3.906774635199891321e+00 1.225692989030745039e+01 -3.906774635199891321e+00 3.886255314159445362e+01 1.471400875019413412e+01 1.225692989030745039e+01 1.471400875019413412e+01 1.547703312002413156e+01
1.332584986605234789e+01 1.044195639472239279e+01 1.507816150023635693e+01 1.044195639472239279e+01 3.524559457181425870e+01 -3.619394872377205363e+00 1.507816150023635693e+01 -3.619394872377205363e+00 5.338139796658089153e+01
2.396546596585744382e+01 -8.120107056676433288e-01 8.619419655176576711e+00 -8.120107056676433288e-01 4.352570371984428022e+01 7.435897160827097174e+00 8.619419655176576711e+00 7.435897160827097174e+00 3.610787972122597722e+01
7.509952319667083653e-01 -6.179937006374145447e+00 -1.030249407326387434e+01 -6.179937006374145447e+00 -2.678473907398928944e+01 2.305133730546291915e+01 -1.030249407326387434e+01 2.305133730546291915e+01 -1.652508761697061512e+00
1.837081539688471565e+01 3.565468523763813735e+00 9.578795513198373968e+00 3.565468523763813735e+00 9.973694050815632650e+00 7.307003668444357558e+00 9.578795513198373968e+00 7.307003668444357558e+00 3.099997561803729340e+01
-2.451611765137790400e+01 1.176502362904419208e+01 2.735341039216835135e+00 1.176502362904419208e+01 -1.708243474464326894e+01 2.683575131920572954e+00 2.735341039216835135e+00 2.683575131920572954e+00 -3.502596509313823159e+00
4.117678004162678462e+01 -1.471804895672125690e+00 6.013444244639762459e+00 -1.471804895672125690e+00 -6.967871026681544677e+00 3.712734830546427833e+00 6.013444244639762459e+00 3.712734830546427833e+00 3.390680352776472262e+01
1.657307161906136361e+00 -9.346770120111388636e+00 1.062345952207361854e+01 -9.346770120111388636e+00 -1.221000996504266567e+01 -3.063751060656465519e-01 1.062345952207361854e+01 -3.063751060656465519e-01 -1.688589406206240184e+01
-3.124807885226867921e+00 -8.860521280886629825e+00 -1.418246569796997214e+01 -8.860521280886629825e+00 6.098231710102493253e+01 2.622976933808590516e+01 -1.418246569796997214e+01 2.622976933808590516e+01 2.101680315490924045e+00
-1.100964917006575483e+01 5.790034276883899267e+00 -8.781210030022087665e+00 5.790034276883899267e+00 -1.364304643801271233e+01 4.850666291956762244e+00 -8.781210030022087665e+00 4.850666291956762244e+00 4.489089474502285348e+00
-9.261737721553343405e+00 -1.198301351742329501e+01 -2.205123735519331873e+01 -1.198301351742329501e+01 -2.163544614916484310e+00 2.021520833674537343e+01 -2.205123735519331873e+01 2.021520833674537343e+01 2.695633725197728925e+00
-9.063623156906492895e+00 6.425378207577259637e+00 -1.712485365608898968e+00 6.425378207577259637e+00 -3.414935215068101826e+00 -1.372665223157411418e+01 -1.712485365608898968e+00 -1.372665223157411418e+01 5.668947602076590542e+00
2.629321318408010910e+01 -6.289265589770773879e+00 -1.679962906772405118e+00 -6.289265589770773879e+00 -3.219768457609071821e-01 2.847778301677021506e+00 -1.679962906772405118e+00 2.847778301677021506e+00 -3.025813054045345396e-01
-8.191689093652080089e+00 -9.102541405704108968e+00 1.770587613910794644e+01 -9.102541405704108968e+00 -2.276523998604400489e+01 -9.670122023894670349e+00 1.770587613910794644e+01 -9.670122023894670349e+00 -1.890179454786839131e+01
-3.737957529763713183e+01 -2.679522831680259998e+01 -2.733046915636767160e+00 -2.679522831680259998e+01 2.516747937948740343e+01 1.993596733135439436e+01 -2.733046915636767160e+00 1.993596733135439436e+01 5.528241780670136052e+01
6.524919663266132375e+00 5.404731973234522258e+00 1.566002091352433467e+01 5.404731973234522258e+00 6.149253103490739392e+01 6.001317394105471159e+00 1.566002091352433467e+01 6.001317394105471159e+00 1.238767510861197962e+01
-7.955567981911842779e+00 1.763627611161542319e+00 -4.337904464774754859e-02 1.763627611161542319e+00 1.905365023471167518e+01 1.232036778857385784e+01 -4.337904464774754859e-02 1.232036778857385784e+01 1.574072223334331966e+01
-4.306136489370970111e+01 4.368811124225533860e+00 7.449990160237046410e+00 4.368811124225533860e+00 -2.625880982713308853e+01 -3.645613589420913403e+00 7.449990160237046410e+00 -3.645613589420913403e+00 -4.292145507654049652e+01
-3.283317719997908313e+01 3.265635068602959823e+00 1.136917062272756951e+01 3.265635068602959823e+00 -5.614374367258646359e+00 1.444616217514262857e+01 1.136917062272756951e+01 1.444616217514262857e+01 -2.950408667315145550e+01
2.534326107591999033e+01 -2.692936147415215942e+01 -2.018495564412748067e+01 -2.692936147415215942e+01 -2.456686111594279964e+01 -1.915927961464172880e+00 -2.018495564412748067e+01 -1.915927961464172880e+00 -4.048762843365090447e+01
1.870583051165900734e+00 1.327404600658821821e+01 -1.316874035298557466e+01 1.327404600658821821e+01 -3.500105374331003105e+01 -5.062855163154760696e+00 -1.316874035298557466e+01 -5.062855163154760696e+00 3.677888084653166345e+01
1.133029599060049009e+01 -1.423971597674826306e+01 5.238197010955271793e+00 -1.423971597674826306e+01 1.841123643823983969e+01 -1.783019101398508255e+01 5.238197010955271793e+00 -1.783019101398508255e+01 3.751490224892372538e+01
-3.072915093070869297e+00 -1.155597940650168631e+01 1.860502190672356093e+01 -1.155597940650168631e+01 7.158692827369979028e+00 -1.072502830326695111e+01 1.860502190672356093e+01 -1.072502830326695111e+01 -2.686954121051392974e+01
-1.532738715567118248e+01 -9.348923197575052413e+00 -4.062878982268434136e+00 -9.348923197575052413e+00 2.997028855421315185e+01 -1.161737440188130144e+01 -4.062878982268434136e+00 -1.161737440188130144e+01 -1.774733605025216931e+01
-6.065602701970835398e+00 1.888846823889440030e+00 -3.811789139005952620e+00 1.888846823889440030e+00 2.645269215861242174e+01 -3.192361866033616025e+01 -3.811789139005952620e+00 -3.192361866033616025e+01 -4.075161040175796501e+00
-3.110034069241391919e+01 -3.786316776833627529e+01 2.664080802637690581e+01 -3.786316776833627529e+01 4.579620122573891949e-01 -1.490955049772970931e+01 2.664080802637690581e+01 -1.490955049772970931e+01 -2.610406212845325769e+01
8.036929499516643816e+00 3.125936027577994381e+01 1.487371430483311840e+01 3.125936027577994381e+01 1.919156473081648073e+01 4.651464709248147145e+00 1.487371430483311840e+01 4.651464709248147145e+00 -2.181065856307941431e+01
8.792198881970612945e+00 -2.087478614274798261e+01 -2.634458229296456344e-01 -2.087478614274798261e+01 -2.079414741568346869e+01 8.089122510313986325e+00 -2.634458229296456344e-01 8.089122510313986325e+00 1.796169159372023216e+01
1.509429683608283135e+01 -1.586000363115070577e+01 1.575657009567945366e+01 -1.586000363115070577e+01 5.709254503702980266e+00 -1.063646238794533616e+01 1.575657009567945366e+01 -1.063646238794533616e+01 1.150426023135242737e+01
2.762034979711776472e+01 7.312923923406600135e-01 1.522213021679147404e+00 7.312923923406600135e-01 2.792463583459988286e+01 -9.911954087223609378e+00 1.522213021679147404e+00 -9.911954087223609378e+00 8.723721275681525000e+00
5.254827141109695177e+00 -5.476028802500894521e+00 -1.130353489742643269e+00 -5.476028802500894521e+00 7.916613197072024377e+00 1.365518886592933789e+01 -1.130353489742643269e+00 1.365518886592933789e+01 2.747674360873332233e+01
-1.163910201798560884e+01 -6.230612496907042441e+00 -3.890232588061936614e+00 -6.230612496907042441e+00 -2.603088213527530170e-01 5.547468094009337491e+00 -3.890232588061936614e+00 5.547468094009337491e+00 -2.544566225578021701e+01
-2.581970069587659466e+01 -1.627021162012561817e+01 -5.775080839518857978e+00 -1.627021162012561817e+01 -8.839629178925679787e-01 -1.738546326253335295e+01 -5.775080839518857978e+00 -1.738546326253335295e+01 -1.781441254180661460e+01
2.309378623877277192e+01 -6.132729607599017640e+00 -4.131205629561452319e+00 -6.132729607599017640e+00 -4.477363953981940092e+00 6.075927107756541545e+00 -4.131205629561452319e+00 6.075927107756541545e+00 -2.676123648597432592e+01
-9.057592444142249732e+00 8.174647154153777961e+00 1.519833250818757087e+01 8.174647154153777961e+00 -1.880189991043824094e+01 -4.985866924833887159e-02 1.519833250818757087e+01 -4.985866924833887159e-02 2.665304590116346262e+01
-9.069943892207280811e+00 4.179462660680743014e+00 6.324682043019752342e+00 4.179462660680743014e+00 2.174444364238059535e+01 1.079577737512544156e+00 6.324682043019752342e+00 1.079577737512544156e+00 -2.492663832090002529e+00
1.349857414717051363e+01 -1.193094116053275933e+01 3.411473864068506145e+01 -1.193094116053275933e+01 8.456663482626371575e+00 -7.556601764929528287e+00 3.411473864068506145e+01 -7.556601764929528287e+00 -2.826342747330215133e+01
3.280321707892393412e+00 -9.637993531218652876e+00 -1.802134900290679465e+00 -9.637993531218652876e+00 2.493805116087316165e+01 5.709258468854847557e+00 -1.802134900290679465e+00 5.709258468854847557e+00 -2.128858032836126402e+00
-2.896983004092474445e+00 -3.347508374023710598e+00 -1.570414993832517503e+01 -3.347508374023710598e+00 7.527744522543608596e+00 9.382746792674115710e+00 -1.570414993832517503e+01 9.382746792674115710e+00 -4.657541474419072358e+01
-1.619217516558624936e+01 5.569550307980589032e+00 7.466548634432736087e+00 5.569550307980589032e+00 -1.083714552132646247e+01 -1.001348406657367462e+00 7.466548634432736087e+00 -1.001348406657367462e+00 -3.710610330498718668e+01
7.610374605520649816e+00 -1.439177870116402325e+01 2.165683842671127479e+01 -1.439177870116402325e+01 1.784976781842679472e+01 4.975993130235329076e+00 2.165683842671127479e+01 4.975993130235329076e+00 6.153033167732884223e+00
-3.224584219518821016e+01 -1.528000840569038132e+01 9.528109543335544274e+00 -1.528000840569038132e+01 -6.078607833643620673e+00 7.735924908429423041e+00 9.528109543335544274e+00 7.735924908429423041e+00 -8.625495117511890797e+00
2.974653390147000565e+01 -9.986300967950938912e+00 1.472184105803156484e+01 -9.986300967950938912e+00 -1.855111821612083389e+01 -2.385881697544736113e+01 1.472184105803156484e+01 -2.385881697544736113e+01 -4.306269435248560740e+01
3.459455911905836700e+01 -7.196742141458501330e+00 2.721886004419737759e+01 -7.196742141458501330e+00 2.836003868176147336e+01 -9.021228319597108580e+00 2.721886004419737759e+01 -9.021228319597108580e+00 -1.418674239748343524e+01
-1.185295738586818892e+01 2.979775941521185523e+00 9.630747216182106385e+00 2.979775941521185523e+00 7.500807546561746975e+00 -2.388666706925911853e+01 9.630747216182106385e+00 -2.388666706925911853e+01 -2.823836658060353955e+01
-7.306769158033952216e+00 -2.397069515149432917e+01 4.399436541118905097e+01 -2.397069515149432917e+01 -3.540843514545419879e+01 2.357392449574568261e+01 4.399436541118905097e+01 2.357392449574568261e+01 -2.251898961063493232e+01
-1.148525894038166584e+01 6.467869058206847654e+00 -4.244109363816251701e+00 6.467869058206847654e+00 2.693262564381392110e+01 6.074476711848697974e+00 -4.244109363816251701e+00 6.074476711848697974e+00 2.389257033071335456e+01
4.033177445760023794e+00 -1.197790413601781268e+01 4.966131797542638004e+00 -1.197790413601781268e+01 3.971306405576289933e+01 -7.439686146660942967e+00 4.966131797542638004e+00 -7.439686146660942967e+00 -4.438086575715245452e+00
2.318006766016885223e+01 -4.526101901377644898e-01 1.293603748537963760e+01 -4.526101901377644898e-01 5.532506273180349154e+01 1.397543294032446148e+01 1.293603748537963760e+01 1.397543294032446148e+01 3.692069393659691201e+01
-1.073710473972750812e+01 1.298617116623245060e+01 2.321318857371209887e+01 1.298617116623245060e+01 2.138098252811399647e+01 6.669223151928860283e+00 2.321318857371209887e+01 6.669223151928860283e+00 3.404645362748664184e+01
-6.571789457682315927e+00 -6.380245716128992939e+00 4.104837681194985777e+01 -6.380245716128992939e+00 -1.156538502995483064e+01 2.581993605596240471e+01 4.104837681194985777e+01 2.581993605596240471e+01 -3.181086333605123784e+01
4.758701420132426563e+01 5.056811988484648523e-01 1.531003961625400400e+01 5.056811988484648523e-01 1.224646047325347631e+01 3.235656254689008193e+00 1.531003961625400400e+01 3.235656254689008193e+00 3.677004790429813141e+01
-3.913303852521330128e+01 -2.034053687437474167e+01 3.061522616984819578e+01 -2.034053687437474167e+01 6.376747036056823248e+00 -6.701422734113343438e+00 3.061522616984819578e+01 -6.701422734113343438e+00 4.060430019507968069e+01
-3.965475309886024480e+00 7.294525618744723161e+00 7.250780647224698505e+00 7.294525618744723161e+00 -1.751477989326529894e+01 -1.313382407532207807e+01 7.250780647224698505e+00 -1.313382407532207807e+01 2.649157273846729765e+01
-1.253733750002266234e+01 -1.351600778702822936e+01 8.929229998884524733e+00 -1.351600778702822936e+01 7.828088915845010654e+00 -4.068112982732587923e+00 8.929229998884524733e+00 -4.068112982732587923e+00 -3.339052857602874269e+01
-1.001429324077963123e+01 -6.259508541136228565e+00 1.362059688104351629e+00 -6.259508541136228565e+00 -1.429894005148081249e+01 -1.303410135554786464e+01 1.362059688104351629e+00 -1.303410135554786464e+01 1.643137011969864503e+01
-1.143183588283022134e+00 -2.147735299520997643e+01 -1.868878885538583390e+01 -2.147735299520997643e+01 -1.649684808860051177e+01 -4.450905600152911035e+01 -1.868878885538583390e+01 -4.450905600152911035e+01 2.668184394949651761e+01
9.308984488622007447e+00 1.488544067502886481e+00 3.117970320702759679e+01 1.488544067502886481e+00 1.890430278964926458e+01 7.038558072235831631e+00 3.117970320702759679e+01 7.038558072235831631e+00 2.883265957724522366e+01
1.440959979300414950e+01 1.366939657151829079e+00 -7.496620912640691969e+00 1.366939657151829079e+00 3.845531760039396119e+01 3.837882330670563391e+01 -7.496620912640691969e+00 3.837882330670563391e+01 1.489023171138447310e+01
-2.586490371038306257e+00 -6.319476648294065413e+00 -5.267503165177537028e+00 -6.319476648294065413e+00 4.820791280054179850e+01 8.295426246466275799e+00 -5.267503165177537028e+00 8.295426246466275799e+00 3.599882983136055969e+01
-2.775070699698961363e+01 1.632342169237679030e+01 -1.308165712123700253e+01 1.632342169237679030e+01 -2.126146208829406703e+01 1.854073829820899633e+01 -1.308165712123700253e+01 1.854073829820899633e+01 -1.135794499456757300e+01
2.004061448652202060e+01 -1.341894398480583028e+01 1.999913276704252851e+01 -1.341894398480583028e+01 3.985209332599253429e+01 -2.155376883553636702e+01 1.999913276704252851e+01 -2.155376883553636702e+01 6.820292322576854360e+00
-9.181201521987099046e-01 -1.745896075108579026e+01 -9.645474923115873622e+00 -1.745896075108579026e+01 4.010438885864765268e+01 -2.845240151322066069e+01 -9.645474923115873622e+00 -2.845240151322066069e+01 -7.708634750706284677e-01
2.207105291842243844e+01 1.906686608588366916e+00 -7.720000858532420906e+00 1.906686608588366916e+00 2.778466370790135187e+01 2.104430997985938578e+00 -7.720000858532420906e+00 2.104430997985938578e+00 1.289510578910909366e+01
1.392897835395375417e+01 4.090430840014780411e-01 -5.814637477767025109e-01 4.090430840014780411e-01 2.686178622313790143e+01 -1.134803494715194638e+01 -5.814637477767025109e-01 -1.134803494715194638e+01 9.034378462538162680e+00
-4.783578103204307297e+01 5.976257351082264080e+00 6.147623001235791307e+00 5.976257351082264080e+00 -2.335832162879038165e+00 1.011856427297017724e+01 6.147623001235791307e+00 1.011856427297017724e+01 -9.147381325589632795e+00
6.962860490847596617e-01 3.292769735727894442e+00 2.142451309820808092e+01 3.292769735727894442e+00 3.044689442732302354e+01 1.463870060336424750e+00 2.142451309820808092e+01 1.463870060336424750e+00 6.875737324355224445e+00
8.788433687047968235e+00 1.885612194609084113e+01 1.682237346205705819e+01 1.885612194609084113e+01 2.918250322710075650e+01 -6.759422993044723604e+00 1.682237346205705819e+01 -6.759422993044723604e+00 2.303573131739065616e+01
-3.350054596294965847e+01 5.628633619821867384e+00 2.310752548999117906e+01 5.628633619821867384e+00 1.734428516039680401e+00 2.064311024947554252e+00 2.310752548999117906e+01 2.064311024947554252e+00 1.857062732975568053e+01
-1.554938128098546990e+01 -6.006742571534632091e+00 -8.711217735719888333e-01 -6.006742571534632091e+00 -9.832206952878854267e+00 1.099521884952199491e+00 -8.711217735719888333e-01 1.099521884952199491e+00 -4.037581313358354151e+01
-6.379927087853983991e+00 -6.514869136184368692e+00 1.868879593601417000e+01 -6.514869136184368692e+00 -1.503460487343000374e+01 -9.423704545656926834e-01 1.868879593601417000e+01 -9.423704545656926834e-01 -4.810663120963367589e+01
-1.584484145686239387e+01 -5.785533546289967077e+00 7.901446491181578047e+00 -5.785533546289967077e+00 4.136663207945866105e+01 9.235970182147051233e+00 7.901446491181578047e+00 9.235970182147051233e+00 -7.920882306151912644e+01
-4.552172916514314949e+01 -4.604862845808104233e+00 -7.540146951132642439e-01 -4.604862845808104233e+00 -1.354675782298026832e+01 -4.041231802101994397e+00 -7.540146951132642439e-01 -4.041231802101994397e+00 -2.576550103500952460e+01
7.528528772937832514e+00 9.339369447377169564e+00 1.346035319865118396e+01 9.339369447377169564e+00 8.497786922312187130e+00 -1.551152229418655004e+01 1.346035319865118396e+01 -1.551152229418655004e+01 2.669790762938426099e+01
-9.305463150539168282e+00 -1.835717300866190982e+01 3.478413048078309089e+00 -1.835717300866190982e+01 1.981420516460406844e+01 -3.827599615624486695e+00 3.478413048078309089e+00 -3.827599615624486695e+00 4.120345588403571213e+01
-5.778027797031277668e-01 1.118493437283959890e+00 -3.875853814492444815e-01 1.118493437283959890e+00 3.657710701316203572e+00 -5.357540151841728715e+00 -3.875853814492444815e-01 -5.357540151841728715e+00 1.134716289696638647e+01
2.481716614236079010e+01 -5.678981418875486575e+00 1.220435141010363189e+01 -5.678981418875486575e+00 -1.129734189666078237e+01 3.384050363952589180e+00 1.220435141010363189e+01 3.384050363952589180e+00 -2.324379926289853415e+01
-5.471116545788216184e-02 2.707437415854877738e+00 -1.309170368316690158e+01 2.707437415854877738e+00 -2.326229981183354667e+01 -1.526387080404284013e+01 -1.309170368316690158e+01 -1.526387080404284013e+01 -2.957863747597478365e+01
1.911728667379655278e+01 6.174619454495655191e+00 7.131278617038435463e+00 6.174619454495655191e+00 1.517448778421153399e+01 -6.910429570938249277e+00 7.131278617038435463e+00 -6.910429570938249277e+00 -1.011515169333854303e+01
6.137115915239081509e+00 1.806007834054047123e+01 -2.147320544635731920e+01 1.806007834054047123e+01 2.482007486448021183e+01 -1.096278447370197107e+01 -2.147320544635731920e+01 -1.096278447370197107e+01 1.261978122086196530e+00
1.333357709736530872e+01 1.431017445961994383e+01 -3.627952519781124874e+00 1.431017445961994383e+01 -1.206499558129525163e+01 -8.155818913739489417e+00 -3.627952519781124874e+00 -8.155818913739489417e+00 3.475993738989304749e+00
2.792369354458125486e+01 -1.365854366763377037e+01 1.597895054007561910e+01 -1.365854366763377037e+01 -1.936639564047644413e+01 -1.079016753490934022e+01 1.597895054007561910e+01 -1.079016753490934022e+01 5.317284004159233035e+01
-7.943543942100954602e+00 -4.899479860463070047e+00 5.659486749722444365e-01 -4.899479860463070047e+00 1.978530883714974919e+01 1.945749047301366730e+01 5.659486749722444365e-01 1.945749047301366730e+01 1.001681281156583836e+01
-6.385905687193694114e+00 -3.638017491344688104e+00 -2.257871301127756070e+01 -3.638017491344688104e+00 -3.486215164116526211e+01 -1.204184277631996736e+01 -2.257871301127756070e+01 -1.204184277631996736e+01 8.514401475084275361e+00
-3.697297984523799386e+01 -6.254438528024278909e+00 1.226482365799881791e+01 -6.254438528024278909e+00 -2.911770811399538061e+01 2.221839201406432096e+01 1.226482365799881791e+01 2.221839201406432096e+01 -1.225280471624032863e+01
-2.231911310243356539e+01 -3.243485022212272639e+01 9.145851343419321822e+00 -3.243485022212272639e+01 -2.134662618653911537e+01 1.744919174978656562e+00 9.145851343419321822e+00 1.744919174978656562e+00 -1.906654207633112108e+01
1.524067183337082199e+01 -7.257708900436503185e+00 -1.980900373503024525e+01 -7.257708900436503185e+00 -6.218423053618281848e+00 1.396243772153134444e+01 -1.980900373503024525e+01 1.396243772153134444e+01 2.323713186003453401e+01
-3.124278905645326176e+01 -1.966746990494646852e+01 2.771471503026968541e+00 -1.966746990494646852e+01 2.461764536492690170e-02 -1.853642506265333667e+00 2.771471503026968541e+00 -1.853642506265333667e+00 6.984980373761582317e-01
2.448149252915147756e+01 -3.992720718038095384e+01 2.229520068765065943e+01 -3.992720718038095384e+01 3.189283095544139002e+01 -3.415128063061393959e+01 2.229520068765065943e+01 -3.415128063061393959e+01 -2.513273898463171108e+01
-5.062633964325621072e+00 -7.125515268800067581e+00 3.014213823611955689e+01 -7.125515268800067581e+00 -1.607118818602587540e+00 -2.315958057014857729e+01 3.014213823611955689e+01 -2.315958057014857729e+01 4.129093053291855497e+00
-1.366849563236913134e+01 -1.381426254529583453e+01 1.616048567186691187e+01 -1.381426254529583453e+01 4.960216074182530299e+00 -1.858851073112514030e+01 1.616048567186691187e+01 -1.858851073112514030e+01 -6.134324165099732440e+00
9.705247321706572450e+00 -4.424576170404580289e+00 -9.019469774744189650e+00 -4.424576170404580289e+00 4.072907276177230074e+01 -1.176832914957542364e+01 -9.019469774744189650e+00 -1.176832914957542364e+01 3.989245573974506698e+01
1.211387570770789424e+01 -2.591000278126559309e+01 8.334676718345303215e+00 -2.591000278126559309e+01 -8.566584856227084543e+00 -3.175113766960753647e+00 8.334676718345303215e+00 -3.175113766960753647e+00 -2.298065167603429515e+01
5.638011770437077352e+00 -3.770915503887745768e+00 2.623724364935479159e+01 -3.770915503887745768e+00 2.460816412036315270e+01 -1.229650437173902056e+01 2.623724364935479159e+01 -1.229650437173902056e+01 -4.343291293520860563e+01
-2.833508484816326600e+01 -2.855653433154614262e+01 1.181537624292508148e+01 -2.855653433154614262e+01 5.723425390024599935e+00 -2.978208233763113100e+01 1.181537624292508148e+01 -2.978208233763113100e+01 -4.830923291006805442e+01
3.759002488329127978e+00 -1.425549813085346251e+01 3.534541103910759574e+01 -1.425549813085346251e+01 -1.989614729373221991e+01 -2.765002244466257153e+01 3.534541103910759574e+01 -2.765002244466257153e+01 -1.584754087560827429e+01
-3.816249878211058189e+01 2.890126548451971900e+01 -1.478615355550973476e+01 2.890126548451971900e+01 -4.350972217524520147e+01 -9.172633961703512417e-01 -1.478615355550973476e+01 -9.172633961703512417e-01 -5.979027661079020106e+01
-1.556782065329167963e+00 -2.716561796750613489e+00 4.433895126966922007e+00 -2.716561796750613489e+00 1.307491466371267208e+01 -2.443365948605680238e+00 4.433895126966922007e+00 -2.443365948605680238e+00 1.951800888660558542e+01
4.901769565731057554e+01 -1.955363775870457133e+01 -2.725234433558669878e+01 -1.955363775870457133e+01 4.061445070063351181e+01 1.220708226683931308e+01 -2.725234433558669878e+01 1.220708226683931308e+01 -7.615913073003146572e+00
-1.674729444436004044e+01 1.108199563167629087e+01 -2.196087494285091779e+01 1.108199563167629087e+01 4.287615180033682805e+01 -7.453920758637563537e+00 -2.196087494285091779e+01 -7.453920758637563537e+00 -1.916759737035770783e+01
-1.006820826038769034e+01 2.636569955890651684e+00 -6.003658533057674163e+00 2.636569955890651684e+00 2.670050367095646493e+01 -6.114048077803800219e+00 -6.003658533057674163e+00 -6.114048077803800219e+00 -1.189719063751809536e+01
2.837545944059652214e+01 -2.843103387626083389e+00 2.195821829110017376e+01 -2.843103387626083389e+00 2.399652301785402742e+01 -2.751928515666177688e+01 2.195821829110017376e+01 -2.751928515666177688e+01 5.026710028282720089e+01
-3.273138835285715142e+00 1.682499187841480115e+00 -5.061567338473456079e-01 1.682499187841480115e+00 3.682955095578702043e+01 5.899157522058855463e+00 -5.061567338473456079e-01 5.899157522058855463e+00 1.047981736409724363e+01
4.238728935958159028e+00 -1.116859228264578174e+00 9.202192469519586027e+00 -1.116859228264578174e+00 7.519947617847846821e+00 1.236162519374774149e+01 9.202192469519586027e+00 1.236162519374774149e+01 4.456424525101207479e+01
2.382155219497819232e+01 -3.523576127840975847e+00 -3.202087278984816709e+00 -3.523576127840975847e+00 5.068177359925437742e+01 1.186529495590168848e+00 -3.202087278984816709e+00 1.186529495590168848e+00 4.887337942351685172e+01
2.115496887170732165e+01 1.165843666493831421e+01 -1.937863209913733797e+01 1.165843666493831421e+01 1.883869736943739426e+01 3.990208227880221781e+00 -1.937863209913733797e+01 3.990208227880221781e+00 -2.881548197290804936e+01
-3.410454310233502095e+00 -5.082871816228552220e+00 2.631504077865648838e+01 -5.082871816228552220e+00 -3.869427719442054769e+00 5.566053327259218975e+00 2.631504077865648838e+01 5.566053327259218975e+00 4.770996591363462613e+01
2.791774949870781342e+01 -1.141973197353173219e+01 -3.392825245033782355e+00 -1.141973197353173219e+01 -3.024977823127120047e+00 -1.211720133722359272e+01 -3.392825245033782355e+00 -1.211720133722359272e+01 2.102454029910186861e+01
-2.506436617164196079e+01 -1.917167666195322795e+01 1.134134970110454965e+01 -1.917167666195322795e+01 -2.546462814360930693e+01 -2.452825951284426376e-01 1.134134970110454965e+01 -2.452825951284426376e-01 2.851328188853299395e+01
2.191734465598196735e+01 1.033366639788972741e+01 1.678402591190312521e+01 1.033366639788972741e+01 1.869016901146060761e+01 -3.082894530644164188e+00 1.678402591190312521e+01 -3.082894530644164188e+00 2.909616884260474023e+01
-8.100969534416535556e-01 1.242649706086425887e+01 -1.741658970468760392e+00 1.242649706086425887e+01 1.363103882525955868e+01 4.989421400257325612e-01 -1.741658970468760392e+00 4.989421400257325612e-01 1.899452443910039534e+01
-1.843064274115128143e+01 -5.528736716590650246e+00 4.052458563162526950e+00 -5.528736716590650246e+00 2.928576965974334101e+01 -1.375417321778092727e+01 4.052458563162526950e+00 -1.375417321778092727e+01 -4.426679966695043156e+00
-2.070354482842799371e+01 -1.729238075601033486e+01 1.863010942258470237e+01 -1.729238075601033486e+01 2.893736054518818435e+01 8.186056595425315052e+00 1.863010942258470237e+01 8.186056595425315052e+00 -5.906306747519693090e+01
2.125570638713429972e+01 -2.557566853971185328e+00 -5.264611436566118741e+00 -2.557566853971185328e+00 2.513465471943363383e+01 3.993681134465257299e-01 -5.264611436566118741e+00 3.993681134465257299e-01 3.961133128721736085e+01
-2.407982349472168604e+00 -5.157634471451626901e+00 6.628039102064510857e+00 -5.157634471451626901e+00 2.468619774265119204e+01 -4.477001425811262258e+00 6.628039102064510857e+00 -4.477001425811262258e+00 3.442771544138376782e+01
1.966580142568595235e+01 3.488269282718599928e+00 -1.166547141080025440e+01 3.488269282718599928e+00 2.696334424177616373e+00 4.129456006300233639e+01 -1.166547141080025440e+01 4.129456006300233639e+01 2.181164333686804735e+00
1.351838404589696552e+01 2.026080446773691701e+00 1.024074674581838451e+01 2.026080446773691701e+00 3.264337642589634925e+01 -3.011797375096798124e+00 1.024074674581838451e+01 -3.011797375096798124e+00 1.693382113590134708e+01
4.269499534054881451e+01 -2.230249231870854221e+00 -2.023579228976124966e+01 -2.230249231870854221e+00 1.177479886129634945e+00 -2.211541730330908351e+01 -2.023579228976124966e+01 -2.211541730330908351e+01 -2.835312289045553769e+01
-2.202825391884777328e+00 7.091293175938388593e+00 5.856843687137605059e-01 7.091293175938388593e+00 -1.816191363658427704e+01 -5.938542809101350350e+00 5.856843687137605059e-01 -5.938542809101350350e+00 1.949960321809024677e+01
4.000116745880126956e+01 1.245251553773869269e+01 -2.805412070106103783e+01 1.245251553773869269e+01 -5.509673399315687448e+00 1.585504039391402920e+01 -2.805412070106103783e+01 1.585504039391402920e+01 -6.650163233355497638e+00
7.608118150883315778e+00 1.067842247467504002e+01 2.565045413617073056e+00 1.067842247467504002e+01 1.262395425997662279e+01 -2.170381386410219804e+01 2.565045413617073056e+00 -2.170381386410219804e+01 3.122177658381063736e+01