1.524199962615966797e+01 0.000000000000000000e+00 0.000000000000000000e+00 0.000000000000000000e+00 1.523299980163574219e+01 0.000000000000000000e+00 0.000000000000000000e+00 0.000000000000000000e+00 2.000300025939941406e+01
1.431200027465820312e+01 0.000000000000000000e+00 0.000000000000000000e+00 0.000000000000000000e+00 1.430399990081787109e+01 0.000000000000000000e+00 0.000000000000000000e+00 0.000000000000000000e+00 1.878400039672851562e+01
1.399800014495849609e+01 0.000000000000000000e+00 0.000000000000000000e+00 0.000000000000000000e+00 1.398999977111816406e+01 0.000000000000000000e+00 0.000000000000000000e+00 0.000000000000000000e+00 1.837000083923339844e+01
1.377099990844726562e+01 0.000000000000000000e+00 0.000000000000000000e+00 0.000000000000000000e+00 1.376399993896484375e+01 0.000000000000000000e+00 0.000000000000000000e+00 0.000000000000000000e+00 1.807299995422363281e+01
1.478899955749511719e+01 0.000000000000000000e+00 0.000000000000000000e+00 0.000000000000000000e+00 1.478100013732910156e+01 0.000000000000000000e+00 0.000000000000000000e+00 0.000000000000000000e+00 1.940900039672851562e+01
1.402999973297119141e+01 0.000000000000000000e+00 0.000000000000000000e+00 0.000000000000000000e+00 1.402200031280517578e+01 0.000000000000000000e+00 0.000000000000000000e+00 0.000000000000000000e+00 1.841300010681152344e+01
1.402299976348876953e+01 0.000000000000000000e+00 0.000000000000000000e+00 0.000000000000000000e+00 1.401500034332275391e+01 0.000000000000000000e+00 0.000000000000000000e+00 0.000000000000000000e+00 1.840299987792968750e+01
1.422399997711181641e+01 0.000000000000000000e+00 0.000000000000000000e+00 0.000000000000000000e+00 1.421599960327148438e+01 0.000000000000000000e+00 0.000000000000000000e+00 0.000000000000000000e+00 1.866799926757812500e+01
1.500899982452392578e+01 0.000000000000000000e+00 0.000000000000000000e+00 0.000000000000000000e+00 1.500000000000000000e+01 0.000000000000000000e+00 0.000000000000000000e+00 0.000000000000000000e+00 1.969799995422363281e+01
1.380700016021728516e+01 0.000000000000000000e+00 0.000000000000000000e+00 0.000000000000000000e+00 1.380000019073486328e+01 0.000000000000000000e+00 0.000000000000000000e+00 0.000000000000000000e+00 1.812100028991699219e+01
1.438199996948242188e+01 0.000000000000000000e+00 0.000000000000000000e+00 0.000000000000000000e+00 1.437399959564208984e+01 0.000000000000000000e+00 0.000000000000000000e+00 0.000000000000000000e+00 1.887500000000000000e+01
1.445800018310546875e+01 0.000000000000000000e+00 0.000000000000000000e+00 0.000000000000000000e+00 1.444999980926513672e+01 0.000000000000000000e+00 0.000000000000000000e+00 0.000000000000000000e+00 1.897500038146972656e+01
1.411200046539306641e+01 0.000000000000000000e+00 0.000000000000000000e+00 0.000000000000000000e+00 1.410400009155273438e+01 0.000000000000000000e+00 0.000000000000000000e+00 0.000000000000000000e+00 1.852099990844726562e+01
1.413099956512451172e+01 0.000000000000000000e+00 0.000000000000000000e+00 0.000000000000000000e+00 1.412300014495849609e+01 0.000000000000000000e+00 0.000000000000000000e+00 0.000000000000000000e+00 1.854500007629394531e+01
1.556499958038330078e+01 0.000000000000000000e+00 0.000000000000000000e+00 0.000000000000000000e+00 1.555599975585937500e+01 0.000000000000000000e+00 0.000000000000000000e+00 0.000000000000000000e+00 2.042700004577636719e+01
1.408699989318847656e+01 0.000000000000000000e+00 0.000000000000000000e+00 0.000000000000000000e+00 1.407900047302246094e+01 0.000000000000000000e+00 0.000000000000000000e+00 0.000000000000000000e+00 1.848800086975097656e+01
1.442800045013427734e+01 0.000000000000000000e+00 0.000000000000000000e+00 0.000000000000000000e+00 1.442000007629394531e+01 0.000000000000000000e+00 0.000000000000000000e+00 0.000000000000000000e+00 1.893600082397460938e+01
1.518599987030029297e+01 0.000000000000000000e+00 0.000000000000000000e+00 0.000000000000000000e+00 1.517700004577636719e+01 0.000000000000000000e+00 0.000000000000000000e+00 0.000000000000000000e+00 1.992900085449218750e+01
1.431000041961669922e+01 0.000000000000000000e+00 0.000000000000000000e+00 0.000000000000000000e+00 1.430200004577636719e+01 0.000000000000000000e+00 0.000000000000000000e+00 0.000000000000000000e+00 1.878000068664550781e+01
1.389900016784667969e+01 0.000000000000000000e+00 0.000000000000000000e+00 0.000000000000000000e+00 1.389200019836425781e+01 0.000000000000000000e+00 0.000000000000000000e+00 0.000000000000000000e+00 1.824099922180175781e+01
1.435400009155273438e+01 0.000000000000000000e+00 0.000000000000000000e+00 0.000000000000000000e+00 1.434599971771240234e+01 0.000000000000000000e+00 0.000000000000000000e+00 0.000000000000000000e+00 1.883799934387207031e+01
1.471500015258789062e+01 0.000000000000000000e+00 0.000000000000000000e+00 0.000000000000000000e+00 1.470699977874755859e+01 0.000000000000000000e+00 0.000000000000000000e+00 0.000000000000000000e+00 1.931200027465820312e+01
1.493500041961669922e+01 0.000000000000000000e+00 0.000000000000000000e+00 0.000000000000000000e+00 1.492599964141845703e+01 0.000000000000000000e+00 0.000000000000000000e+00 0.000000000000000000e+00 1.960000038146972656e+01
1.409200000762939453e+01 0.000000000000000000e+00 0.000000000000000000e+00 0.000000000000000000e+00 1.408399963378906250e+01 0.000000000000000000e+00 0.000000000000000000e+00 0.000000000000000000e+00 1.849399948120117188e+01
1.407400035858154297e+01 0.000000000000000000e+00 0.000000000000000000e+00 0.000000000000000000e+00 1.406599998474121094e+01 0.000000000000000000e+00 0.000000000000000000e+00 0.000000000000000000e+00 1.847100067138671875e+01
1.393500041961669922e+01 0.000000000000000000e+00 0.000000000000000000e+00 0.000000000000000000e+00 1.392700004577636719e+01 0.000000000000000000e+00 0.000000000000000000e+00 0.000000000000000000e+00 1.828800010681152344e+01
1.426200008392333984e+01 0.000000000000000000e+00 0.000000000000000000e+00 0.000000000000000000e+00 1.425399971008300781e+01 0.000000000000000000e+00 0.000000000000000000e+00 0.000000000000000000e+00 1.871699905395507812e+01
1.551500034332275391e+01 0.000000000000000000e+00 0.000000000000000000e+00 0.000000000000000000e+00 1.550699996948242188e+01 0.000000000000000000e+00 0.000000000000000000e+00 0.000000000000000000e+00 2.036199951171875000e+01
1.487500000000000000e+01 0.000000000000000000e+00 0.000000000000000000e+00 0.000000000000000000e+00 1.486600017547607422e+01 0.000000000000000000e+00 0.000000000000000000e+00 0.000000000000000000e+00 1.952099990844726562e+01
1.444400024414062500e+01 0.000000000000000000e+00 0.000000000000000000e+00 0.000000000000000000e+00 1.443599987030029297e+01 0.000000000000000000e+00 0.000000000000000000e+00 0.000000000000000000e+00 1.895700073242187500e+01
1.528600025177001953e+01 0.000000000000000000e+00 0.000000000000000000e+00 0.000000000000000000e+00 1.527700042724609375e+01 0.000000000000000000e+00 0.000000000000000000e+00 0.000000000000000000e+00 2.006100082397460938e+01
1.530500030517578125e+01 0.000000000000000000e+00 0.000000000000000000e+00 0.000000000000000000e+00 1.529699993133544922e+01 0.000000000000000000e+00 0.000000000000000000e+00 0.000000000000000000e+00 2.008699989318847656e+01
1.516600036621093750e+01 0.000000000000000000e+00 0.000000000000000000e+00 0.000000000000000000e+00 1.515799999237060547e+01 0.000000000000000000e+00 0.000000000000000000e+00 0.000000000000000000e+00 1.990399932861328125e+01
1.453999996185302734e+01 0.000000000000000000e+00 0.000000000000000000e+00 0.000000000000000000e+00 1.453199958801269531e+01 0.000000000000000000e+00 0.000000000000000000e+00 0.000000000000000000e+00 1.908200073242187500e+01
1.439999961853027344e+01 0.000000000000000000e+00 0.000000000000000000e+00 0.000000000000000000e+00 1.439099979400634766e+01 0.000000000000000000e+00 0.000000000000000000e+00 0.000000000000000000e+00 1.889800071716308594e+01
1.480700016021728516e+01 0.000000000000000000e+00 0.000000000000000000e+00 0.000000000000000000e+00 1.479899978637695312e+01 0.000000000000000000e+00 0.000000000000000000e+00 0.000000000000000000e+00 1.943199920654296875e+01
1.460999965667724609e+01 0.000000000000000000e+00 0.000000000000000000e+00 0.000000000000000000e+00 1.460200023651123047e+01 0.000000000000000000e+00 0.000000000000000000e+00 0.000000000000000000e+00 1.917399978637695312e+01
1.559300041198730469e+01 0.000000000000000000e+00 0.000000000000000000e+00 0.000000000000000000e+00 1.558399963378906250e+01 0.000000000000000000e+00 0.000000000000000000e+00 0.000000000000000000e+00 2.046400070190429688e+01
1.414400005340576172e+01 0.000000000000000000e+00 0.000000000000000000e+00 0.000000000000000000e+00 1.413599967956542969e+01 0.000000000000000000e+00 0.000000000000000000e+00 0.000000000000000000e+00 1.856200027465820312e+01
1.556999969482421875e+01 0.000000000000000000e+00 0.000000000000000000e+00 0.000000000000000000e+00 1.556200027465820312e+01 0.000000000000000000e+00 0.000000000000000000e+00 0.000000000000000000e+00 2.043400001525878906e+01
1.421599960327148438e+01 0.000000000000000000e+00 0.000000000000000000e+00 0.000000000000000000e+00 1.420800018310546875e+01 0.000000000000000000e+00 0.000000000000000000e+00 0.000000000000000000e+00 1.865699958801269531e+01
1.387899971008300781e+01 0.000000000000000000e+00 0.000000000000000000e+00 0.000000000000000000e+00 1.387100028991699219e+01 0.000000000000000000e+00 0.000000000000000000e+00 0.000000000000000000e+00 1.821500015258789062e+01
1.480700016021728516e+01 0.000000000000000000e+00 0.000000000000000000e+00 0.000000000000000000e+00 1.479800033569335938e+01 0.000000000000000000e+00 0.000000000000000000e+00 0.000000000000000000e+00 1.943199920654296875e+01
1.468200016021728516e+01 0.000000000000000000e+00 0.000000000000000000e+00 0.000000000000000000e+00 1.467399978637695312e+01 0.000000000000000000e+00 0.000000000000000000e+00 0.000000000000000000e+00 1.926799964904785156e+01
1.510299968719482422e+01 0.000000000000000000e+00 0.000000000000000000e+00 0.000000000000000000e+00 1.509500026702880859e+01 0.000000000000000000e+00 0.000000000000000000e+00 0.000000000000000000e+00 1.982099914550781250e+01
1.380200004577636719e+01 0.000000000000000000e+00 0.000000000000000000e+00 0.000000000000000000e+00 1.379399967193603516e+01 0.000000000000000000e+00 0.000000000000000000e+00 0.000000000000000000e+00 1.811400032043457031e+01
1.468200016021728516e+01 0.000000000000000000e+00 0.000000000000000000e+00 0.000000000000000000e+00 1.467399978637695312e+01 0.000000000000000000e+00 0.000000000000000000e+00 0.000000000000000000e+00 1.926899909973144531e+01
1.527000045776367188e+01 0.000000000000000000e+00 0.000000000000000000e+00 0.000000000000000000e+00 1.526200008392333984e+01 0.000000000000000000e+00 0.000000000000000000e+00 0.000000000000000000e+00 2.004100036621093750e+01
1.393599987030029297e+01 0.000000000000000000e+00 0.000000000000000000e+00 0.000000000000000000e+00 1.392800045013427734e+01 0.000000000000000000e+00 0.000000000000000000e+00 0.000000000000000000e+00 1.829000091552734375e+01
1.489000034332275391e+01 0.000000000000000000e+00 0.000000000000000000e+00 0.000000000000000000e+00 1.488099956512451172e+01 0.000000000000000000e+00 0.000000000000000000e+00 0.000000000000000000e+00 1.954100036621093750e+01
1.389500045776367188e+01 0.000000000000000000e+00 0.000000000000000000e+00 0.000000000000000000e+00 1.388700008392333984e+01 0.000000000000000000e+00 0.000000000000000000e+00 0.000000000000000000e+00 1.823600006103515625e+01
1.378600025177001953e+01 0.000000000000000000e+00 0.000000000000000000e+00 0.000000000000000000e+00 1.377799987792968750e+01 0.000000000000000000e+00 0.000000000000000000e+00 0.000000000000000000e+00 1.809199905395507812e+01
1.448499965667724609e+01 0.000000000000000000e+00 0.000000000000000000e+00 0.000000000000000000e+00 1.447700023651123047e+01 0.000000000000000000e+00 0.000000000000000000e+00 0.000000000000000000e+00 1.901000022888183594e+01
1.410299968719482422e+01 0.000000000000000000e+00 0.000000000000000000e+00 0.000000000000000000e+00 1.409500026702880859e+01 0.000000000000000000e+00 0.000000000000000000e+00 0.000000000000000000e+00 1.850900077819824219e+01
1.389000034332275391e+01 0.000000000000000000e+00 0.000000000000000000e+00 0.000000000000000000e+00 1.388199996948242188e+01 0.000000000000000000e+00 0.000000000000000000e+00 0.000000000000000000e+00 1.822999954223632812e+01
1.381499958038330078e+01 0.000000000000000000e+00 0.000000000000000000e+00 0.000000000000000000e+00 1.380700016021728516e+01 0.000000000000000000e+00 0.000000000000000000e+00 0.000000000000000000e+00 1.813100051879882812e+01
1.384300041198730469e+01 0.000000000000000000e+00 0.000000000000000000e+00 0.000000000000000000e+00 1.383500003814697266e+01 0.000000000000000000e+00 0.000000000000000000e+00 0.000000000000000000e+00 1.816699981689453125e+01
1.469900035858154297e+01 0.000000000000000000e+00 0.000000000000000000e+00 0.000000000000000000e+00 1.469099998474121094e+01 0.000000000000000000e+00 0.000000000000000000e+00 0.000000000000000000e+00 1.929100036621093750e+01
1.425800037384033203e+01 0.000000000000000000e+00 0.000000000000000000e+00 0.000000000000000000e+00 1.425000000000000000e+01 0.000000000000000000e+00 0.000000000000000000e+00 0.000000000000000000e+00 1.871199989318847656e+01
1.400599956512451172e+01 0.000000000000000000e+00 0.000000000000000000e+00 0.000000000000000000e+00 1.399800014495849609e+01 0.000000000000000000e+00 0.000000000000000000e+00 0.000000000000000000e+00 1.838199996948242188e+01
1.445800018310546875e+01 0.000000000000000000e+00 0.000000000000000000e+00 0.000000000000000000e+00 1.444999980926513672e+01 0.000000000000000000e+00 0.000000000000000000e+00 0.000000000000000000e+00 1.897400093078613281e+01
1.386900043487548828e+01 0.000000000000000000e+00 0.000000000000000000e+00 0.000000000000000000e+00 1.386200046539306641e+01 0.000000000000000000e+00 0.000000000000000000e+00 0.000000000000000000e+00 1.820199966430664062e+01
1.390299987792968750e+01 0.000000000000000000e+00 0.000000000000000000e+00 0.000000000000000000e+00 1.389500045776367188e+01 0.000000000000000000e+00 0.000000000000000000e+00 0.000000000000000000e+00 1.824600028991699219e+01
1.459300041198730469e+01 0.000000000000000000e+00 0.000000000000000000e+00 0.000000000000000000e+00 1.458500003814697266e+01 0.000000000000000000e+00 0.000000000000000000e+00 0.000000000000000000e+00 1.915200042724609375e+01
1.483899974822998047e+01 0.000000000000000000e+00 0.000000000000000000e+00 0.000000000000000000e+00 1.483100032806396484e+01 0.000000000000000000e+00 0.000000000000000000e+00 0.000000000000000000e+00 1.947500038146972656e+01
1.406700038909912109e+01 0.000000000000000000e+00 0.000000000000000000e+00 0.000000000000000000e+00 1.405900001525878906e+01 0.000000000000000000e+00 0.000000000000000000e+00 0.000000000000000000e+00 1.846100044250488281e+01
1.447599983215332031e+01 0.000000000000000000e+00 0.000000000000000000e+00 0.000000000000000000e+00 1.446800041198730469e+01 0.000000000000000000e+00 0.000000000000000000e+00 0.000000000000000000e+00 1.899799919128417969e+01
1.551599979400634766e+01 0.000000000000000000e+00 0.000000000000000000e+00 0.000000000000000000e+00 1.550800037384033203e+01 0.000000000000000000e+00 0.000000000000000000e+00 0.000000000000000000e+00 2.036400032043457031e+01
1.452400016784667969e+01 0.000000000000000000e+00 0.000000000000000000e+00 0.000000000000000000e+00 1.451599979400634766e+01 0.000000000000000000e+00 0.000000000000000000e+00 0.000000000000000000e+00 1.906100082397460938e+01
1.497799968719482422e+01 0.000000000000000000e+00 0.000000000000000000e+00 0.000000000000000000e+00 1.497000026702880859e+01 0.000000000000000000e+00 0.000000000000000000e+00 0.000000000000000000e+00 1.965800094604492188e+01
1.422299957275390625e+01 0.000000000000000000e+00 0.000000000000000000e+00 0.000000000000000000e+00 1.421500015258789062e+01 0.000000000000000000e+00 0.000000000000000000e+00 0.000000000000000000e+00 1.866699981689453125e+01
1.481299972534179688e+01 0.000000000000000000e+00 0.000000000000000000e+00 0.000000000000000000e+00 1.480399990081787109e+01 0.000000000000000000e+00 0.000000000000000000e+00 0.000000000000000000e+00 1.944000053405761719e+01
1.480099964141845703e+01 0.000000000000000000e+00 0.000000000000000000e+00 0.000000000000000000e+00 1.479300022125244141e+01 0.000000000000000000e+00 0.000000000000000000e+00 0.000000000000000000e+00 1.942499923706054688e+01
1.516199970245361328e+01 0.000000000000000000e+00 0.000000000000000000e+00 0.000000000000000000e+00 1.515400028228759766e+01 0.000000000000000000e+00 0.000000000000000000e+00 0.000000000000000000e+00 1.989900016784667969e+01
1.392599964141845703e+01 0.000000000000000000e+00 0.000000000000000000e+00 0.000000000000000000e+00 1.391800022125244141e+01 0.000000000000000000e+00 0.000000000000000000e+00 0.000000000000000000e+00 1.827599906921386719e+01
1.435999965667724609e+01 0.000000000000000000e+00 0.000000000000000000e+00 0.000000000000000000e+00 1.435099983215332031e+01 0.000000000000000000e+00 0.000000000000000000e+00 0.000000000000000000e+00 1.884499931335449219e+01
1.372999954223632812e+01 0.000000000000000000e+00 0.000000000000000000e+00 0.000000000000000000e+00 1.372200012207031250e+01 0.000000000000000000e+00 0.000000000000000000e+00 0.000000000000000000e+00 1.801899909973144531e+01
1.482600021362304688e+01 0.000000000000000000e+00 0.000000000000000000e+00 0.000000000000000000e+00 1.481799983978271484e+01 0.000000000000000000e+00 0.000000000000000000e+00 0.000000000000000000e+00 1.945800018310546875e+01
1.384200000762939453e+01 0.000000000000000000e+00 0.000000000000000000e+00 0.000000000000000000e+00 1.383399963378906250e+01 0.000000000000000000e+00 0.000000000000000000e+00 0.000000000000000000e+00 1.816600036621093750e+01
1.513399982452392578e+01 0.000000000000000000e+00 0.000000000000000000e+00 0.000000000000000000e+00 1.512500000000000000e+01 0.000000000000000000e+00 0.000000000000000000e+00 0.000000000000000000e+00 1.986100006103515625e+01
1.438700008392333984e+01 0.000000000000000000e+00 0.000000000000000000e+00 0.000000000000000000e+00 1.437899971008300781e+01 0.000000000000000000e+00 0.000000000000000000e+00 0.000000000000000000e+00 1.888199996948242188e+01
1.401500034332275391e+01 0.000000000000000000e+00 0.000000000000000000e+00 0.000000000000000000e+00 1.400699996948242188e+01 0.000000000000000000e+00 0.000000000000000000e+00 0.000000000000000000e+00 1.839299964904785156e+01
1.425399971008300781e+01 0.000000000000000000e+00 0.000000000000000000e+00 0.000000000000000000e+00 1.424600028991699219e+01 0.000000000000000000e+00 0.000000000000000000e+00 0.000000000000000000e+00 1.870700073242187500e+01
1.382199954986572266e+01 0.000000000000000000e+00 0.000000000000000000e+00 0.000000000000000000e+00 1.381499958038330078e+01 0.000000000000000000e+00 0.000000000000000000e+00 0.000000000000000000e+00 1.813999938964843750e+01
1.472299957275390625e+01 0.000000000000000000e+00 0.000000000000000000e+00 0.000000000000000000e+00 1.471500015258789062e+01 0.000000000000000000e+00 0.000000000000000000e+00 0.000000000000000000e+00 1.932299995422363281e+01
1.521000003814697266e+01 0.000000000000000000e+00 0.000000000000000000e+00 0.000000000000000000e+00 1.520100021362304688e+01 0.000000000000000000e+00 0.000000000000000000e+00 0.000000000000000000e+00 1.996199989318847656e+01
1.440499973297119141e+01 0.000000000000000000e+00 0.000000000000000000e+00 0.000000000000000000e+00 1.439700031280517578e+01 0.000000000000000000e+00 0.000000000000000000e+00 0.000000000000000000e+00 1.890500068664550781e+01
1.446899986267089844e+01 0.000000000000000000e+00 0.000000000000000000e+00 0.000000000000000000e+00 1.446100044250488281e+01 0.000000000000000000e+00 0.000000000000000000e+00 0.000000000000000000e+00 1.898900032043457031e+01
1.427700042724609375e+01 0.000000000000000000e+00 0.000000000000000000e+00 0.000000000000000000e+00 1.426900005340576172e+01 0.000000000000000000e+00 0.000000000000000000e+00 0.000000000000000000e+00 1.873699951171875000e+01
1.480000019073486328e+01 0.000000000000000000e+00 0.000000000000000000e+00 0.000000000000000000e+00 1.479199981689453125e+01 0.000000000000000000e+00 0.000000000000000000e+00 0.000000000000000000e+00 1.942399978637695312e+01
1.431599998474121094e+01 0.000000000000000000e+00 0.000000000000000000e+00 0.000000000000000000e+00 1.430799961090087891e+01 0.000000000000000000e+00 0.000000000000000000e+00 0.000000000000000000e+00 1.878899955749511719e+01
1.417099952697753906e+01 0.000000000000000000e+00 0.000000000000000000e+00 0.000000000000000000e+00 1.416300010681152344e+01 0.000000000000000000e+00 0.000000000000000000e+00 0.000000000000000000e+00 1.859700012207031250e+01
1.505300045013427734e+01 0.000000000000000000e+00 0.000000000000000000e+00 0.000000000000000000e+00 1.504500007629394531e+01 0.000000000000000000e+00 0.000000000000000000e+00 0.000000000000000000e+00 1.975600051879882812e+01
1.437699985504150391e+01 0.000000000000000000e+00 0.000000000000000000e+00 0.000000000000000000e+00 1.436900043487548828e+01 0.000000000000000000e+00 0.000000000000000000e+00 0.000000000000000000e+00 1.886899948120117188e+01
1.527400016784667969e+01 0.000000000000000000e+00 0.000000000000000000e+00 0.000000000000000000e+00 1.526500034332275391e+01 0.000000000000000000e+00 0.000000000000000000e+00 0.000000000000000000e+00 2.004599952697753906e+01
1.407800006866455078e+01 0.000000000000000000e+00 0.000000000000000000e+00 0.000000000000000000e+00 1.406999969482421875e+01 0.000000000000000000e+00 0.000000000000000000e+00 0.000000000000000000e+00 1.847599983215332031e+01
1.542899990081787109e+01 0.000000000000000000e+00 0.000000000000000000e+00 0.000000000000000000e+00 1.542000007629394531e+01 0.000000000000000000e+00 0.000000000000000000e+00 0.000000000000000000e+00 2.024900054931640625e+01
1.454699993133544922e+01 0.000000000000000000e+00 0.000000000000000000e+00 0.000000000000000000e+00 1.453800010681152344e+01 0.000000000000000000e+00 0.000000000000000000e+00 0.000000000000000000e+00 1.909099960327148438e+01
1.439000034332275391e+01 0.000000000000000000e+00 0.000000000000000000e+00 0.000000000000000000e+00 1.438199996948242188e+01 0.000000000000000000e+00 0.000000000000000000e+00 0.000000000000000000e+00 1.888599967956542969e+01
1.517399978637695312e+01 0.000000000000000000e+00 0.000000000000000000e+00 0.000000000000000000e+00 1.516499996185302734e+01 0.000000000000000000e+00 0.000000000000000000e+00 0.000000000000000000e+00 1.991399955749511719e+01
1.459099960327148438e+01 0.000000000000000000e+00 0.000000000000000000e+00 0.000000000000000000e+00 1.458300018310546875e+01 0.000000000000000000e+00 0.000000000000000000e+00 0.000000000000000000e+00 1.914900016784667969e+01
1.542399978637695312e+01 0.000000000000000000e+00 0.000000000000000000e+00 0.000000000000000000e+00 1.541499996185302734e+01 0.000000000000000000e+00 0.000000000000000000e+00 0.000000000000000000e+00 2.024200057983398438e+01
1.487600040435791016e+01 0.000000000000000000e+00 0.000000000000000000e+00 0.000000000000000000e+00 1.486800003051757812e+01 0.000000000000000000e+00 0.000000000000000000e+00 0.000000000000000000e+00 1.952400016784667969e+01
1.432999992370605469e+01 0.000000000000000000e+00 0.000000000000000000e+00 0.000000000000000000e+00 1.432199954986572266e+01 0.000000000000000000e+00 0.000000000000000000e+00 0.000000000000000000e+00 1.880699920654296875e+01
1.388000011444091797e+01 0.000000000000000000e+00 0.000000000000000000e+00 0.000000000000000000e+00 1.387300014495849609e+01 0.000000000000000000e+00 0.000000000000000000e+00 0.000000000000000000e+00 1.821699905395507812e+01
1.465100002288818359e+01 0.000000000000000000e+00 0.000000000000000000e+00 0.000000000000000000e+00 1.464299964904785156e+01 0.000000000000000000e+00 0.000000000000000000e+00 0.000000000000000000e+00 1.922800064086914062e+01
1.409300041198730469e+01 0.000000000000000000e+00 0.000000000000000000e+00 0.000000000000000000e+00 1.408500003814697266e+01 0.000000000000000000e+00 0.000000000000000000e+00 0.000000000000000000e+00 1.849600028991699219e+01
1.463399982452392578e+01 0.000000000000000000e+00 0.000000000000000000e+00 0.000000000000000000e+00 1.462600040435791016e+01 0.000000000000000000e+00 0.000000000000000000e+00 0.000000000000000000e+00 1.920599937438964844e+01
1.406000041961669922e+01 0.000000000000000000e+00 0.000000000000000000e+00 0.000000000000000000e+00 1.405200004577636719e+01 0.000000000000000000e+00 0.000000000000000000e+00 0.000000000000000000e+00 1.845199966430664062e+01
1.419999980926513672e+01 0.000000000000000000e+00 0.000000000000000000e+00 0.000000000000000000e+00 1.419200038909912109e+01 0.000000000000000000e+00 0.000000000000000000e+00 0.000000000000000000e+00 1.863599967956542969e+01
1.371199989318847656e+01 0.000000000000000000e+00 0.000000000000000000e+00 0.000000000000000000e+00 1.370400047302246094e+01 0.000000000000000000e+00 0.000000000000000000e+00 0.000000000000000000e+00 1.799500083923339844e+01
1.372000026702880859e+01 0.000000000000000000e+00 0.000000000000000000e+00 0.000000000000000000e+00 1.371199989318847656e+01 0.000000000000000000e+00 0.000000000000000000e+00 0.000000000000000000e+00 1.800600051879882812e+01
1.465699958801269531e+01 0.000000000000000000e+00 0.000000000000000000e+00 0.000000000000000000e+00 1.464799976348876953e+01 0.000000000000000000e+00 0.000000000000000000e+00 0.000000000000000000e+00 1.923500061035156250e+01
1.409599971771240234e+01 0.000000000000000000e+00 0.000000000000000000e+00 0.000000000000000000e+00 1.408899974822998047e+01 0.000000000000000000e+00 0.000000000000000000e+00 0.000000000000000000e+00 1.850000000000000000e+01
1.440699958801269531e+01 0.000000000000000000e+00 0.000000000000000000e+00 0.000000000000000000e+00 1.439900016784667969e+01 0.000000000000000000e+00 0.000000000000000000e+00 0.000000000000000000e+00 1.890800094604492188e+01
1.430500030517578125e+01 0.000000000000000000e+00 0.000000000000000000e+00 0.000000000000000000e+00 1.429699993133544922e+01 0.000000000000000000e+00 0.000000000000000000e+00 0.000000000000000000e+00 1.877300071716308594e+01
1.423400020599365234e+01 0.000000000000000000e+00 0.000000000000000000e+00 0.000000000000000000e+00 1.422599983215332031e+01 0.000000000000000000e+00 0.000000000000000000e+00 0.000000000000000000e+00 1.868099975585937500e+01
1.443799972534179688e+01 0.000000000000000000e+00 0.000000000000000000e+00 0.000000000000000000e+00 1.443000030517578125e+01 0.000000000000000000e+00 0.000000000000000000e+00 0.000000000000000000e+00 1.894899940490722656e+01
1.490600013732910156e+01 0.000000000000000000e+00 0.000000000000000000e+00 0.000000000000000000e+00 1.489700031280517578e+01 0.000000000000000000e+00 0.000000000000000000e+00 0.000000000000000000e+00 1.956200027465820312e+01
1.434399986267089844e+01 0.000000000000000000e+00 0.000000000000000000e+00 0.000000000000000000e+00 1.433600044250488281e+01 0.000000000000000000e+00 0.000000000000000000e+00 0.000000000000000000e+00 1.882500076293945312e+01
1.446399974822998047e+01 0.000000000000000000e+00 0.000000000000000000e+00 0.000000000000000000e+00 1.445600032806396484e+01 0.000000000000000000e+00 0.000000000000000000e+00 0.000000000000000000e+00 1.898299980163574219e+01
1.452799987792968750e+01 0.000000000000000000e+00 0.000000000000000000e+00 0.000000000000000000e+00 1.452000045776367188e+01 0.000000000000000000e+00 0.000000000000000000e+00 0.000000000000000000e+00 1.906699943542480469e+01
1.372700023651123047e+01 0.000000000000000000e+00 0.000000000000000000e+00 0.000000000000000000e+00 1.371899986267089844e+01 0.000000000000000000e+00 0.000000000000000000e+00 0.000000000000000000e+00 1.801499938964843750e+01
1.445100021362304688e+01 0.000000000000000000e+00 0.000000000000000000e+00 0.000000000000000000e+00 1.444299983978271484e+01 0.000000000000000000e+00 0.000000000000000000e+00 0.000000000000000000e+00 1.896599960327148438e+01
1.431999969482421875e+01 0.000000000000000000e+00 0.000000000000000000e+00 0.000000000000000000e+00 1.431200027465820312e+01 0.000000000000000000e+00 0.000000000000000000e+00 0.000000000000000000e+00 1.879400062561035156e+01
1.526399993896484375e+01 0.000000000000000000e+00 0.000000000000000000e+00 0.000000000000000000e+00 1.525599956512451172e+01 0.000000000000000000e+00 0.000000000000000000e+00 0.000000000000000000e+00 2.003300094604492188e+01
1.530500030517578125e+01 0.000000000000000000e+00 0.000000000000000000e+00 0.000000000000000000e+00 1.529599952697753906e+01 0.000000000000000000e+00 0.000000000000000000e+00 0.000000000000000000e+00 2.008600044250488281e+01
1.543900012969970703e+01 0.000000000000000000e+00 0.000000000000000000e+00 0.000000000000000000e+00 1.543000030517578125e+01 0.000000000000000000e+00 0.000000000000000000e+00 0.000000000000000000e+00 2.026199913024902344e+01
1.515100002288818359e+01 0.000000000000000000e+00 0.000000000000000000e+00 0.000000000000000000e+00 1.514299964904785156e+01 0.000000000000000000e+00 0.000000000000000000e+00 0.000000000000000000e+00 1.988500022888183594e+01
1.364599990844726562e+01 0.000000000000000000e+00 0.000000000000000000e+00 0.000000000000000000e+00 1.363799953460693359e+01 0.000000000000000000e+00 0.000000000000000000e+00 0.000000000000000000e+00 1.790900039672851562e+01
1.378100013732910156e+01 0.000000000000000000e+00 0.000000000000000000e+00 0.000000000000000000e+00 1.377299976348876953e+01 0.000000000000000000e+00 0.000000000000000000e+00 0.000000000000000000e+00 1.808600044250488281e+01
1.391699981689453125e+01 0.000000000000000000e+00 0.000000000000000000e+00 0.000000000000000000e+00 1.390999984741210938e+01 0.000000000000000000e+00 0.000000000000000000e+00 0.000000000000000000e+00 1.826499938964843750e+01
1.471199989318847656e+01 0.000000000000000000e+00 0.000000000000000000e+00 0.000000000000000000e+00 1.470300006866455078e+01 0.000000000000000000e+00 0.000000000000000000e+00 0.000000000000000000e+00 1.930800056457519531e+01