-1.058555234375000000e+05
-1.058464687500000000e+05
-1.058409531250000000e+05
-1.058349531250000000e+05
-1.058532656250000000e+05
-1.058441875000000000e+05
-1.058389765625000000e+05
-1.058462500000000000e+05
-1.058541406250000000e+05
-1.058359453125000000e+05
-1.058506953125000000e+05
-1.058512734375000000e+05
-1.058448593750000000e+05
-1.058441171875000000e+05
-1.058573984375000000e+05
-1.058399609375000000e+05
-1.058512890625000000e+05
-1.058549296875000000e+05
-1.058464765625000000e+05
-1.058360468750000000e+05
-1.058491953125000000e+05
-1.058540234375000000e+05
-1.058550390625000000e+05
-1.058445937500000000e+05
-1.058435234375000000e+05
-1.058398359375000000e+05
-1.058460078125000000e+05
-1.058555078125000000e+05
-1.058546328125000000e+05
-1.058518750000000000e+05
-1.058574375000000000e+05
-1.058572343750000000e+05
-1.058569765625000000e+05
-1.058527500000000000e+05
-1.058478984375000000e+05
-1.058561406250000000e+05
-1.058523437500000000e+05
-1.058570468750000000e+05
-1.058443671875000000e+05
-1.058575781250000000e+05
-1.058463359375000000e+05
-1.058384531250000000e+05
-1.058518515625000000e+05
-1.058539375000000000e+05
-1.058549140625000000e+05
-1.058343203125000000e+05
-1.058529687500000000e+05
-1.058552265625000000e+05
-1.058402265625000000e+05
-1.058557500000000000e+05
-1.058389218750000000e+05
-1.058340937500000000e+05
-1.058503593750000000e+05
-1.058439609375000000e+05
-1.058397109375000000e+05
-1.058367812500000000e+05
-1.058372109375000000e+05
-1.058525390625000000e+05
-1.058470781250000000e+05
-1.058422656250000000e+05
-1.058501328125000000e+05
-1.058382890625000000e+05
-1.058404296875000000e+05
-1.058532812500000000e+05
-1.058551718750000000e+05
-1.058432343750000000e+05
-1.058526796875000000e+05
-1.058588359375000000e+05
-1.058525937500000000e+05
-1.058563906250000000e+05
-1.058479609375000000e+05
-1.058526796875000000e+05
-1.058543437500000000e+05
-1.058572500000000000e+05
-1.058397109375000000e+05
-1.058483984375000000e+05
-1.058364921875000000e+05
-1.058547656250000000e+05
-1.058387578125000000e+05
-1.058581250000000000e+05
-1.058506953125000000e+05
-1.058407421875000000e+05
-1.058481328125000000e+05
-1.058343125000000000e+05
-1.058558437500000000e+05
-1.058572187500000000e+05
-1.058517656250000000e+05
-1.058504843750000000e+05
-1.058499375000000000e+05
-1.058529687500000000e+05
-1.058494765625000000e+05
-1.058445078125000000e+05
-1.058561875000000000e+05
-1.058504218750000000e+05
-1.058561718750000000e+05
-1.058449687500000000e+05
-1.058574765625000000e+05
-1.058508359375000000e+05
-1.058522890625000000e+05
-1.058569296875000000e+05
-1.058519453125000000e+05
-1.058587109375000000e+05
-1.058548671875000000e+05
-1.058481093750000000e+05
-1.058352656250000000e+05
-1.058546093750000000e+05
-1.058447812500000000e+05
-1.058531328125000000e+05
-1.058448046875000000e+05
-1.058475468750000000e+05
-1.058339765625000000e+05
-1.058350937500000000e+05
-1.058521328125000000e+05
-1.058436015625000000e+05
-1.058518281250000000e+05
-1.058487578125000000e+05
-1.058474921875000000e+05
-1.058499921875000000e+05
-1.058560234375000000e+05
-1.058496953125000000e+05
-1.058494453125000000e+05
-1.058500703125000000e+05
-1.058332421875000000e+05
-1.058503750000000000e+05
-1.058498125000000000e+05
-1.058563828125000000e+05
-1.058573437500000000e+05
-1.058576718750000000e+05
-1.058549687500000000e+05
-1.058321171875000000e+05
-1.058348906250000000e+05
-1.058392968750000000e+05
-1.058546328125000000e+05
-1.058489765625000000e+05
-1.058338750000000000e+05
-1.058460781250000000e+05
-1.058499375000000000e+05
-1.058544062500000000e+05
-1.058570859375000000e+05
-1.058523828125000000e+05
-1.058500156250000000e+05
-1.058538906250000000e+05
-1.058540781250000000e+05
-1.058483906250000000e+05
-1.058555000000000000e+05
-1.058515546875000000e+05
-1.058555937500000000e+05
-1.058544218750000000e+05
-1.058543593750000000e+05
-1.058579921875000000e+05
-1.058529296875000000e+05
-1.058559218750000000e+05
-1.058566640625000000e+05
-1.058529218750000000e+05
-1.058557343750000000e+05
-1.058562656250000000e+05
-1.058564531250000000e+05
-1.058492656250000000e+05
-1.058320859375000000e+05
-1.058544140625000000e+05
-1.058362500000000000e+05
-1.058557500000000000e+05
-1.058573906250000000e+05
-1.058459140625000000e+05
-1.058523828125000000e+05
-1.058445000000000000e+05
-1.058442343750000000e+05
-1.058532421875000000e+05
-1.058552968750000000e+05
-1.058537109375000000e+05
-1.058522968750000000e+05
-1.058511484375000000e+05
-1.058509218750000000e+05
-1.058570781250000000e+05
-1.058566484375000000e+05
-1.058347031250000000e+05
-1.058454531250000000e+05
-1.058351093750000000e+05
-1.058554687500000000e+05
-1.058558203125000000e+05
-1.058550546875000000e+05
-1.058494843750000000e+05
-1.058459609375000000e+05
-1.058405625000000000e+05
-1.058523984375000000e+05
-1.058548437500000000e+05
-1.058369687500000000e+05
-1.058568515625000000e+05
-1.058443281250000000e+05
-1.058387031250000000e+05
-1.058541093750000000e+05
-1.058544453125000000e+05
-1.058313671875000000e+05
-1.058308984375000000e+05
-1.058429609375000000e+05
-1.058512031250000000e+05
-1.058428671875000000e+05
-1.058545546875000000e+05
-1.058514375000000000e+05
-1.058468750000000000e+05
-1.058427343750000000e+05
-1.058551640625000000e+05
-1.058576093750000000e+05
-1.058554218750000000e+05
-1.058564921875000000e+05
-1.058409921875000000e+05
-1.058431562500000000e+05
-1.058537265625000000e+05
-1.058472656250000000e+05
-1.058376328125000000e+05
-1.058561953125000000e+05
-1.058462578125000000e+05
-1.058510625000000000e+05
-1.058515468750000000e+05
-1.058591406250000000e+05
-1.058557578125000000e+05
-1.058556875000000000e+05
-1.058471015625000000e+05
-1.058534375000000000e+05
-1.058565859375000000e+05
-1.058440312500000000e+05
-1.058483750000000000e+05
-1.058412812500000000e+05
-1.058527031250000000e+05
-1.058516406250000000e+05
-1.058366171875000000e+05
-1.058582500000000000e+05
-1.058434609375000000e+05
-1.058559453125000000e+05
-1.058429921875000000e+05
-1.058542500000000000e+05
-1.058545234375000000e+05
-1.058476562500000000e+05
-1.058363046875000000e+05
-1.058482656250000000e+05
-1.058328828125000000e+05
-1.058536015625000000e+05
-1.058530937500000000e+05
-1.058566250000000000e+05
-1.058515156250000000e+05
-1.058559140625000000e+05
-1.058449921875000000e+05
-1.058537890625000000e+05
-1.058561640625000000e+05
-1.058376406250000000e+05
-1.058437890625000000e+05
-1.058443828125000000e+05
-1.058558906250000000e+05
-1.058334687500000000e+05
-1.058426875000000000e+05
-1.058527656250000000e+05
-1.058409765625000000e+05
-1.058528515625000000e+05
-1.058435234375000000e+05
-1.058565312500000000e+05
-1.058523125000000000e+05
-1.058556171875000000e+05
-1.058571250000000000e+05
-1.058395625000000000e+05
-1.058565625000000000e+05
-1.058538671875000000e+05
-1.058467421875000000e+05
-1.058456406250000000e+05
-1.058436015625000000e+05
-1.058487812500000000e+05
-1.058542500000000000e+05
-1.058410390625000000e+05
-1.058581328125000000e+05
-1.058421718750000000e+05
-1.058553593750000000e+05
-1.058381796875000000e+05
-1.058509765625000000e+05
-1.058491640625000000e+05
-1.058541484375000000e+05
-1.058565937500000000e+05
-1.058557968750000000e+05
-1.058375078125000000e+05
-1.058444062500000000e+05
-1.058325546875000000e+05
-1.058517265625000000e+05
-1.058541718750000000e+05
-1.058451718750000000e+05
-1.058483437500000000e+05
-1.058404375000000000e+05
-1.058486718750000000e+05
-1.058548437500000000e+05
-1.058558984375000000e+05
-1.058560390625000000e+05
-1.058468671875000000e+05
-1.058568671875000000e+05
-1.058543906250000000e+05
-1.058511718750000000e+05
-1.058357343750000000e+05
-1.058429218750000000e+05
-1.058334531250000000e+05
-1.058464062500000000e+05
-1.058541796875000000e+05
-1.058472734375000000e+05
-1.058436640625000000e+05
-1.058523203125000000e+05
-1.058557265625000000e+05
-1.058483750000000000e+05
-1.058550468750000000e+05
-1.058574921875000000e+05
-1.058523515625000000e+05
-1.058545625000000000e+05
-1.058440546875000000e+05
-1.058531093750000000e+05
-1.058538515625000000e+05
-1.058394296875000000e+05
-1.058583437500000000e+05
-1.058521328125000000e+05
-1.058473046875000000e+05
-1.058506328125000000e+05
-1.058448437500000000e+05
-1.058427187500000000e+05
-1.058559062500000000e+05
-1.058422265625000000e+05
-1.058424375000000000e+05
-1.058553437500000000e+05
-1.058531640625000000e+05
-1.058580625000000000e+05
-1.058507890625000000e+05
-1.058402343750000000e+05
-1.058567265625000000e+05
-1.058529218750000000e+05
-1.058509687500000000e+05
-1.058529687500000000e+05
-1.058522109375000000e+05
-1.058466796875000000e+05
-1.058540703125000000e+05
-1.058428671875000000e+05
-1.058461640625000000e+05
-1.058407812500000000e+05
-1.058516640625000000e+05
-1.058566875000000000e+05
-1.058460468750000000e+05
-1.058514218750000000e+05
-1.058432734375000000e+05
-1.058527187500000000e+05
-1.058377968750000000e+05
-1.058554531250000000e+05
-1.058383906250000000e+05
-1.058537578125000000e+05
-1.058363203125000000e+05
-1.058523906250000000e+05
-1.058546953125000000e+05
-1.058462109375000000e+05
-1.058389218750000000e+05
-1.058504921875000000e+05
-1.058455546875000000e+05
-1.058551484375000000e+05
-1.058397187500000000e+05
-1.058545078125000000e+05
-1.058544609375000000e+05
-1.058452500000000000e+05
-1.058580937500000000e+05
-1.058378437500000000e+05
-1.058496953125000000e+05
-1.058580000000000000e+05
-1.058546640625000000e+05
-1.058518125000000000e+05
-1.058575703125000000e+05
-1.058536718750000000e+05
-1.058487578125000000e+05
-1.058542421875000000e+05
-1.058510312500000000e+05
-1.058522031250000000e+05
-1.058364453125000000e+05
-1.058399609375000000e+05
-1.058502500000000000e+05
-1.058463046875000000e+05
-1.058484531250000000e+05
-1.058564609375000000e+05
-1.058503515625000000e+05
-1.058555312500000000e+05
-1.058533203125000000e+05
-1.058429531250000000e+05
-1.058570078125000000e+05
-1.058566718750000000e+05
-1.058534531250000000e+05
-1.058558906250000000e+05
-1.058567343750000000e+05
-1.058414062500000000e+05
-1.058458046875000000e+05
-1.058504140625000000e+05
-1.058558125000000000e+05
-1.058478125000000000e+05
-1.058545234375000000e+05
-1.058466093750000000e+05
-1.058399375000000000e+05
-1.058484765625000000e+05
-1.058493984375000000e+05
-1.058420390625000000e+05
-1.058502500000000000e+05
-1.058387890625000000e+05
-1.058559921875000000e+05
-1.058332421875000000e+05
-1.058418671875000000e+05
-1.058433593750000000e+05
-1.058491875000000000e+05
-1.058553437500000000e+05
-1.058562968750000000e+05
-1.058510078125000000e+05
-1.058565312500000000e+05
-1.058457656250000000e+05
-1.058382578125000000e+05
-1.058567187500000000e+05
-1.058500390625000000e+05
-1.058479375000000000e+05
-1.058516171875000000e+05
-1.058460859375000000e+05
-1.058481250000000000e+05
-1.058403437500000000e+05
-1.058583906250000000e+05
-1.058555078125000000e+05
-1.058383203125000000e+05
-1.058518750000000000e+05
-1.058466953125000000e+05
-1.058350312500000000e+05
-1.058571718750000000e+05
-1.058583828125000000e+05
-1.058442031250000000e+05
-1.058580859375000000e+05
-1.058475468750000000e+05
-1.058557187500000000e+05
-1.058473906250000000e+05
-1.058560078125000000e+05
-1.058568593750000000e+05
-1.058579453125000000e+05
-1.058384296875000000e+05
-1.058530703125000000e+05
-1.058515546875000000e+05
-1.058517812500000000e+05
-1.058492656250000000e+05
-1.058507265625000000e+05
-1.058546640625000000e+05
-1.058553281250000000e+05
-1.058558828125000000e+05
-1.058362734375000000e+05
-1.058396171875000000e+05
-1.058475937500000000e+05
-1.058474843750000000e+05
-1.058462890625000000e+05
-1.058551171875000000e+05
-1.058521562500000000e+05
-1.058570546875000000e+05
-1.058312109375000000e+05
-1.058507656250000000e+05
-1.058382968750000000e+05
-1.058506171875000000e+05
-1.058455625000000000e+05
-1.058354453125000000e+05
-1.058564687500000000e+05
-1.058482421875000000e+05
-1.058523203125000000e+05
-1.058570546875000000e+05
-1.058568046875000000e+05
-1.058344609375000000e+05
-1.058422500000000000e+05
-1.058517500000000000e+05
-1.058454609375000000e+05
-1.058467187500000000e+05
-1.058580546875000000e+05
-1.058545703125000000e+05
-1.058512656250000000e+05
-1.058555234375000000e+05
-1.058552968750000000e+05
-1.058557265625000000e+05
-1.058428125000000000e+05
-1.058490625000000000e+05
-1.058535625000000000e+05
-1.058482578125000000e+05
-1.058518281250000000e+05
-1.058444062500000000e+05
-1.058491875000000000e+05
-1.058556093750000000e+05
-1.058545156250000000e+05
-1.058534609375000000e+05
-1.058511562500000000e+05
-1.058528906250000000e+05
-1.058571953125000000e+05
-1.058568593750000000e+05
-1.058417578125000000e+05
-1.058366953125000000e+05
-1.058356484375000000e+05
-1.058510312500000000e+05
-1.058451718750000000e+05
-1.058330546875000000e+05
-1.058551171875000000e+05
-1.058575468750000000e+05
-1.058541250000000000e+05
-1.058513515625000000e+05
-1.058465078125000000e+05
-1.058345468750000000e+05
-1.058446484375000000e+05
-1.058424843750000000e+05
-1.058456718750000000e+05
-1.058419375000000000e+05
-1.058563671875000000e+05
-1.058516015625000000e+05
-1.058427890625000000e+05
-1.058557968750000000e+05
-1.058502812500000000e+05
-1.058565937500000000e+05
-1.058443828125000000e+05
-1.058363359375000000e+05
-1.058553984375000000e+05
-1.058439296875000000e+05
-1.058430000000000000e+05
-1.058334062500000000e+05
-1.058515859375000000e+05
-1.058533281250000000e+05
-1.058557031250000000e+05
-1.058437578125000000e+05
-1.058443671875000000e+05
-1.058447812500000000e+05
-1.058551171875000000e+05
-1.058547421875000000e+05
-1.058552968750000000e+05
-1.058448671875000000e+05
-1.058536406250000000e+05
-1.058548203125000000e+05
-1.058560234375000000e+05
-1.058506250000000000e+05
-1.058411796875000000e+05
-1.058490937500000000e+05
-1.058377265625000000e+05
-1.058504296875000000e+05
-1.058554062500000000e+05
-1.058502734375000000e+05
-1.058495156250000000e+05
-1.058364843750000000e+05
-1.058459843750000000e+05
-1.058574375000000000e+05
-1.058544062500000000e+05
-1.058571718750000000e+05
-1.058532421875000000e+05
-1.058541250000000000e+05
-1.058510546875000000e+05
