8.127177238464355469e+00 1.912798285484313965e+00 -1.604893302917480469e+01 1.912798285484313965e+00 -1.298659896850585938e+01 5.192001819610595703e+00 -1.604893302917480469e+01 5.192001819610595703e+00 -1.103078484535217285e+00
2.814133071899414062e+01 -1.627376365661621094e+01 1.967498779296875000e+01 -1.627376365661621094e+01 6.743479919433593750e+01 -3.272979259490966797e+00 1.967498779296875000e+01 -3.272979259490966797e+00 4.740371322631835938e+01
9.229592895507812500e+01 -8.306648254394531250e+00 1.732315063476562500e+01 -8.306648254394531250e+00 9.495977020263671875e+01 -1.288340568542480469e+01 1.732315063476562500e+01 -1.288340568542480469e+01 9.196295166015625000e+01
1.442121276855468750e+02 -5.251649856567382812e+00 -1.165300178527832031e+01 -5.251649856567382812e+00 1.362943267822265625e+02 -1.041232967376708984e+01 -1.165300178527832031e+01 -1.041232967376708984e+01 1.109156646728515625e+02
4.236219406127929688e+01 -1.116592311859130859e+01 -1.773379206657409668e+00 -1.116592311859130859e+01 3.788223266601562500e+00 1.525298506021499634e-01 -1.773379206657409668e+00 1.525298506021499634e-01 3.671626281738281250e+01
9.858335113525390625e+01 1.520775222778320312e+01 1.176395606994628906e+01 1.520775222778320312e+01 8.247590637207031250e+01 6.741531372070312500e+00 1.176395606994628906e+01 6.741531372070312500e+00 8.382057952880859375e+01
9.452017974853515625e+01 -8.544780731201171875e+00 -1.957175636291503906e+01 -8.544780731201171875e+00 8.671558380126953125e+01 1.035431194305419922e+01 -1.957175636291503906e+01 1.035431194305419922e+01 1.068347244262695312e+02
6.201131057739257812e+01 -1.031654167175292969e+01 4.965779304504394531e+00 -1.031654167175292969e+01 7.735631561279296875e+01 -1.272803974151611328e+01 4.965779304504394531e+00 -1.272803974151611328e+01 1.003212814331054688e+02
-1.759959602355957031e+01 1.137375259399414062e+01 2.937629073858261108e-02 1.137375259399414062e+01 1.440979862213134766e+01 1.339589786529541016e+01 2.937629073858261108e-02 1.339589786529541016e+01 3.384448623657226562e+01
1.152491683959960938e+02 -1.396898031234741211e+00 2.403308105468750000e+01 -1.396898031234741211e+00 1.361916809082031250e+02 -4.021101474761962891e+00 2.403308105468750000e+01 -4.021101474761962891e+00 1.422459106445312500e+02
3.803203964233398438e+01 7.246765494346618652e-01 4.558934688568115234e+00 7.246765494346618652e-01 5.099673461914062500e+01 9.373918533325195312e+00 4.558934688568115234e+00 9.373918533325195312e+00 6.139343261718750000e+01
6.302574539184570312e+01 -1.404333305358886719e+01 -3.544940471649169922e+00 -1.404333305358886719e+01 7.713862609863281250e+01 -1.740806579589843750e+00 -3.544940471649169922e+00 -1.740806579589843750e+00 4.913768768310546875e+01
1.079268417358398438e+02 -2.987419128417968750e+00 -2.082117795944213867e+00 -2.987419128417968750e+00 7.970181274414062500e+01 -1.450326728820800781e+01 -2.082117795944213867e+00 -1.450326728820800781e+01 4.617995071411132812e+01
6.514595794677734375e+01 1.199357390403747559e+00 1.690655708312988281e+01 1.199357390403747559e+00 1.096029052734375000e+02 -5.549671173095703125e+00 1.690655708312988281e+01 -5.549671173095703125e+00 6.217430877685546875e+01
-1.511752605438232422e+01 4.130628705024719238e-01 -1.093245506286621094e+01 4.130628705024719238e-01 -2.469949531555175781e+01 1.340386104583740234e+01 -1.093245506286621094e+01 1.340386104583740234e+01 -3.190048980712890625e+01
1.139112777709960938e+02 -2.524191284179687500e+01 -1.290203666687011719e+01 -2.524191284179687500e+01 1.048772964477539062e+02 -6.544006347656250000e+00 -1.290203666687011719e+01 -6.544006347656250000e+00 1.025855255126953125e+02
5.082824325561523438e+01 -1.199293375015258789e+00 6.426209449768066406e+00 -1.199293375015258789e+00 4.798279190063476562e+01 -9.540736198425292969e+00 6.426209449768066406e+00 -9.540736198425292969e+00 2.377376937866210938e+01
1.639025497436523438e+01 8.137804985046386719e+00 1.934834599494934082e+00 8.137804985046386719e+00 -7.598703503608703613e-01 1.505533218383789062e+01 1.934834599494934082e+00 1.505533218383789062e+01 -1.792941093444824219e+01
5.753746795654296875e+01 1.003219890594482422e+01 -1.447584748268127441e+00 1.003219890594482422e+01 4.819658279418945312e+01 -7.370349884033203125e+00 -1.447584748268127441e+00 -7.370349884033203125e+00 3.099570465087890625e+01
1.012793350219726562e+02 -1.614544677734375000e+01 2.346795350313186646e-01 -1.614544677734375000e+01 1.033187103271484375e+02 6.740553855895996094e+00 2.346795350313186646e-01 6.740553855895996094e+00 1.332920837402343750e+02
4.870907211303710938e+01 1.367425155639648438e+01 -3.801704406738281250e+00 1.367425155639648438e+01 5.994192123413085938e+01 -1.416646575927734375e+01 -3.801704406738281250e+00 -1.416646575927734375e+01 5.546486282348632812e+01
1.900404739379882812e+01 8.544105291366577148e-01 7.023489475250244141e+00 8.544105291366577148e-01 4.478249359130859375e+01 -1.330760288238525391e+01 7.023489475250244141e+00 -1.330760288238525391e+01 5.543259143829345703e+00
6.242154121398925781e+00 -2.333019018173217773e+00 -3.569245576858520508e+00 -2.333019018173217773e+00 2.668648004531860352e+00 -1.694166779518127441e+00 -3.569245576858520508e+00 -1.694166779518127441e+00 1.470710563659667969e+01
1.330820465087890625e+02 1.852260589599609375e+00 4.863150119781494141e+00 1.852260589599609375e+00 9.297306823730468750e+01 -1.119579029083251953e+01 4.863150119781494141e+00 -1.119579029083251953e+01 9.161566925048828125e+01
9.837947845458984375e+01 1.699639701843261719e+01 1.594730186462402344e+01 1.699639701843261719e+01 1.010624084472656250e+02 -4.488126277923583984e+00 1.594730186462402344e+01 -4.488126277923583984e+00 9.845818328857421875e+01
1.019291763305664062e+02 -1.352004051208496094e+01 7.288920402526855469e+00 -1.352004051208496094e+01 1.226596450805664062e+02 9.773120880126953125e+00 7.288920402526855469e+00 9.773120880126953125e+00 9.527616119384765625e+01
8.011978149414062500e+01 -4.502980709075927734e+00 9.526119232177734375e+00 -4.502980709075927734e+00 8.684765625000000000e+01 -1.374886333942413330e-01 9.526119232177734375e+00 -1.374886333942413330e-01 8.856059265136718750e+01
-3.028564453125000000e+01 4.518486976623535156e+00 -3.386672258377075195e+00 4.518486976623535156e+00 1.773137474060058594e+01 1.165456199645996094e+01 -3.386672258377075195e+00 1.165456199645996094e+01 -9.986287117004394531e+00
1.937336921691894531e+01 5.697518587112426758e-01 9.086977958679199219e+00 5.697518587112426758e-01 3.181527137756347656e+01 -8.031033515930175781e+00 9.086977958679199219e+00 -8.031033515930175781e+00 3.607659149169921875e+01
6.453142547607421875e+01 -1.046572875976562500e+01 1.401987838745117188e+01 -1.046572875976562500e+01 6.015457916259765625e+01 2.185258865356445312e+01 1.401987838745117188e+01 2.185258865356445312e+01 4.809573745727539062e+01
1.167717695236206055e+00 -7.589846134185791016e+00 -1.519585609436035156e+01 -7.589846134185791016e+00 5.463256835937500000e+00 3.100982427597045898e+00 -1.519585609436035156e+01 3.100982427597045898e+00 -1.361642646789550781e+01
-2.923050498962402344e+01 4.878120899200439453e+00 -1.084936046600341797e+01 4.878120899200439453e+00 -2.284644889831542969e+01 -1.184333896636962891e+01 -1.084936046600341797e+01 -1.184333896636962891e+01 -2.452304649353027344e+01
-1.488948059082031250e+01 -1.077473402023315430e+00 -1.332683181762695312e+01 -1.077473402023315430e+00 3.993777990341186523e+00 -1.024789333343505859e+01 -1.332683181762695312e+01 -1.024789333343505859e+01 -2.565911102294921875e+01
5.853467559814453125e+01 4.850081443786621094e+00 -1.674745941162109375e+01 4.850081443786621094e+00 1.937256050109863281e+01 1.680930256843566895e+00 -1.674745941162109375e+01 1.680930256843566895e+00 4.053577423095703125e+01
6.394349288940429688e+01 -1.859796142578125000e+01 3.608900070190429688e+00 -1.859796142578125000e+01 6.553728485107421875e+01 -2.670873641967773438e+00 3.608900070190429688e+00 -2.670873641967773438e+00 5.470455932617187500e+01
-4.235552847385406494e-01 1.324201202392578125e+01 -9.676244735717773438e+00 1.324201202392578125e+01 -2.930390834808349609e+00 -1.316822814941406250e+01 -9.676244735717773438e+00 -1.316822814941406250e+01 1.395272254943847656e+01
3.925701904296875000e+01 -6.903396129608154297e+00 1.598668193817138672e+01 -6.903396129608154297e+00 5.088473129272460938e+01 6.751567363739013672e+00 1.598668193817138672e+01 6.751567363739013672e+00 1.957639884948730469e+01
-2.253878402709960938e+01 1.776394486427307129e+00 2.395273447036743164e+00 1.776394486427307129e+00 -1.853799057006835938e+01 1.155841922760009766e+01 2.395273447036743164e+00 1.155841922760009766e+01 -3.097328376770019531e+01
5.423843383789062500e+01 2.713265657424926758e+00 1.126664876937866211e+00 2.713265657424926758e+00 8.403009796142578125e+01 3.547500610351562500e+00 1.126664876937866211e+00 3.547500610351562500e+00 8.946198272705078125e+01
-2.789904117584228516e+00 -9.316741943359375000e+00 -1.298834800720214844e+00 -9.316741943359375000e+00 -1.382216548919677734e+01 -1.286069011688232422e+01 -1.298834800720214844e+00 -1.286069011688232422e+01 -5.148318481445312500e+01
5.582594680786132812e+01 -4.413150787353515625e+00 -2.166591882705688477e+00 -4.413150787353515625e+00 6.261800003051757812e+01 1.513493251800537109e+01 -2.166591882705688477e+00 1.513493251800537109e+01 8.480048370361328125e+01
1.194974822998046875e+02 2.671278953552246094e+01 6.123968124389648438e+00 2.671278953552246094e+01 1.165300216674804688e+02 3.275666475296020508e+00 6.123968124389648438e+00 3.275666475296020508e+00 1.154729766845703125e+02
1.351272487640380859e+01 4.151690483093261719e+00 5.431097507476806641e+00 4.151690483093261719e+00 2.543519973754882812e+01 -2.479454278945922852e+00 5.431097507476806641e+00 -2.479454278945922852e+00 3.194895553588867188e+01
2.314041328430175781e+01 -2.268917798995971680e+00 1.679063034057617188e+01 -2.268917798995971680e+00 2.516886901855468750e+01 -5.947873115539550781e+00 1.679063034057617188e+01 -5.947873115539550781e+00 1.494544219970703125e+01
1.917830657958984375e+01 -1.048085308074951172e+01 9.494050979614257812e+00 -1.048085308074951172e+01 -1.269368457794189453e+01 6.481529712677001953e+00 9.494050979614257812e+00 6.481529712677001953e+00 -3.810133361816406250e+01
1.106082687377929688e+02 -3.096663093566894531e+01 4.069581031799316406e+00 -3.096663093566894531e+01 1.276236801147460938e+02 -1.828254508972167969e+01 4.069581031799316406e+00 -1.828254508972167969e+01 9.046541595458984375e+01
2.392393875122070312e+01 -8.222888112068176270e-01 -1.507066845893859863e+00 -8.222888112068176270e-01 4.869400787353515625e+01 -3.301492214202880859e+00 -1.507066845893859863e+00 -3.301492214202880859e+00 2.611553001403808594e+01
1.775125312805175781e+01 3.933196783065795898e+00 -1.689799499511718750e+01 3.933196783065795898e+00 4.172506809234619141e+00 -3.242579221725463867e+00 -1.689799499511718750e+01 -3.242579221725463867e+00 -1.444521045684814453e+01
1.112209243774414062e+02 -2.364282369613647461e+00 2.232806831598281860e-01 -2.364282369613647461e+00 1.380640869140625000e+02 3.873725175857543945e+00 2.232806831598281860e-01 3.873725175857543945e+00 8.465723419189453125e+01
6.547830581665039062e+00 5.006268978118896484e+00 1.151470661163330078e+01 5.006268978118896484e+00 1.157069015502929688e+01 6.001912117004394531e+00 1.151470661163330078e+01 6.001912117004394531e+00 -1.353009819984436035e+00
9.587535858154296875e+01 -2.059279441833496094e+01 7.445829868316650391e+00 -2.059279441833496094e+01 1.050017929077148438e+02 -6.533490657806396484e+00 7.445829868316650391e+00 -6.533490657806396484e+00 1.094780654907226562e+02
1.210748519897460938e+02 6.692306518554687500e+00 1.043150043487548828e+01 6.692306518554687500e+00 9.860826110839843750e+01 9.434037208557128906e+00 1.043150043487548828e+01 9.434037208557128906e+00 1.436591033935546875e+02
3.677911281585693359e+00 3.021521091461181641e+00 6.146463871002197266e+00 3.021521091461181641e+00 3.943502807617187500e+01 -1.590801715850830078e+01 6.146463871002197266e+00 -1.590801715850830078e+01 3.759835433959960938e+01
7.248156738281250000e+01 4.126235961914062500e+00 -1.129093074798583984e+01 4.126235961914062500e+00 1.031216278076171875e+02 -5.136611461639404297e+00 -1.129093074798583984e+01 -5.136611461639404297e+00 9.233239746093750000e+01
9.946659088134765625e+01 -1.224887752532958984e+01 7.600221157073974609e+00 -1.224887752532958984e+01 8.691590881347656250e+01 -7.323501110076904297e+00 7.600221157073974609e+00 -7.323501110076904297e+00 1.224906768798828125e+02
9.055152893066406250e+01 1.664143371582031250e+01 -2.654966354370117188e+01 1.664143371582031250e+01 1.153169860839843750e+02 2.399709892272949219e+01 -2.654966354370117188e+01 2.399709892272949219e+01 1.227706756591796875e+02
9.902762603759765625e+01 -6.048013210296630859e+00 -1.217758178710937500e+01 -6.048013210296630859e+00 1.147793502807617188e+02 1.452913761138916016e+01 -1.217758178710937500e+01 1.452913761138916016e+01 1.272233734130859375e+02
4.139272689819335938e+01 -1.378822803497314453e+01 3.412244081497192383e+00 -1.378822803497314453e+01 5.016287994384765625e+01 -1.033655881881713867e+00 3.412244081497192383e+00 -1.033655881881713867e+00 3.093926429748535156e+01
4.515668487548828125e+01 3.313264131546020508e+00 6.689013957977294922e+00 3.313264131546020508e+00 7.009949493408203125e+01 1.060534858703613281e+01 6.689013957977294922e+00 1.060534858703613281e+01 6.310633850097656250e+01
1.216305007934570312e+02 3.911583423614501953e+00 9.130127906799316406e+00 3.911583423614501953e+00 1.257217636108398438e+02 1.349639034271240234e+01 9.130127906799316406e+00 1.349639034271240234e+01 9.799478149414062500e+01
5.705135345458984375e+01 -9.859648704528808594e+00 -3.968015432357788086e+00 -9.859648704528808594e+00 6.210776901245117188e+01 -1.611060905456542969e+01 -3.968015432357788086e+00 -1.611060905456542969e+01 4.736335372924804688e+01
1.289648895263671875e+02 -6.258448958396911621e-01 1.103871536254882812e+01 -6.258448958396911621e-01 1.152253952026367188e+02 1.972432136535644531e+01 1.103871536254882812e+01 1.972432136535644531e+01 1.222772445678710938e+02
1.306945953369140625e+02 1.900688934326171875e+01 1.262818813323974609e+01 1.900688934326171875e+01 1.259233169555664062e+02 -2.437160873413085938e+01 1.262818813323974609e+01 -2.437160873413085938e+01 1.066328430175781250e+02
3.554454040527343750e+01 9.265927314758300781e+00 8.758624076843261719e+00 9.265927314758300781e+00 3.525495147705078125e+01 7.986446022987365723e-01 8.758624076843261719e+00 7.986446022987365723e-01 3.003122138977050781e+01
1.038146305084228516e+01 -6.618062019348144531e+00 -1.822390174865722656e+01 -6.618062019348144531e+00 3.782735824584960938e+01 -3.647597789764404297e+00 -1.822390174865722656e+01 -3.647597789764404297e+00 6.720722198486328125e+00
9.091687011718750000e+01 4.163195610046386719e+00 -4.841055393218994141e+00 4.163195610046386719e+00 1.146810607910156250e+02 1.057931995391845703e+01 -4.841055393218994141e+00 1.057931995391845703e+01 1.246111679077148438e+02
5.094647598266601562e+01 4.084584236145019531e+00 1.277089977264404297e+01 4.084584236145019531e+00 4.942921829223632812e+01 8.022397041320800781e+00 1.277089977264404297e+01 8.022397041320800781e+00 3.720418930053710938e+01
-1.794118118286132812e+01 5.141109943389892578e+00 1.145068931579589844e+01 5.141109943389892578e+00 -1.582882499694824219e+01 -1.673132324218750000e+01 1.145068931579589844e+01 -1.673132324218750000e+01 -2.721877861022949219e+01
3.760232925415039062e+01 -2.701041698455810547e+00 -1.569171667098999023e+00 -2.701041698455810547e+00 7.482001495361328125e+01 -1.525765895843505859e+00 -1.569171667098999023e+00 -1.525765895843505859e+00 1.049038505554199219e+01
-1.319325160980224609e+01 8.154743194580078125e+00 1.336139082908630371e+00 8.154743194580078125e+00 7.004426002502441406e+00 -1.002344036102294922e+01 1.336139082908630371e+00 -1.002344036102294922e+01 -1.354291915893554688e+00
8.012218475341796875e+01 7.958931922912597656e+00 -3.176738619804382324e-01 7.958931922912597656e+00 6.748489379882812500e+01 -5.701607704162597656e+00 -3.176738619804382324e-01 -5.701607704162597656e+00 6.348222351074218750e+01
1.797555541992187500e+01 1.042069530487060547e+01 6.369709491729736328e+00 1.042069530487060547e+01 2.665888404846191406e+01 1.256590175628662109e+01 6.369709491729736328e+00 1.256590175628662109e+01 1.690373992919921875e+01
2.573973655700683594e+01 9.555685043334960938e+00 2.064465141296386719e+01 9.555685043334960938e+00 2.720013618469238281e+01 9.166616439819335938e+00 2.064465141296386719e+01 9.166616439819335938e+00 1.729915618896484375e+01
-1.960820007324218750e+01 7.660312652587890625e+00 1.531618785858154297e+01 7.660312652587890625e+00 1.075393962860107422e+01 -6.721841692924499512e-01 1.531618785858154297e+01 -6.721841692924499512e-01 -5.953920841217041016e+00
1.156543655395507812e+02 1.536648988723754883e+00 1.695586013793945312e+01 1.536648988723754883e+00 9.783090209960937500e+01 -1.213375091552734375e+01 1.695586013793945312e+01 -1.213375091552734375e+01 6.515481567382812500e+01
9.177700805664062500e+01 -1.466667556762695312e+01 -1.938878774642944336e+00 -1.466667556762695312e+01 9.847720336914062500e+01 6.753912925720214844e+00 -1.938878774642944336e+00 6.753912925720214844e+00 6.076678848266601562e+01
1.517998809814453125e+02 7.942577838897705078e+00 5.541070938110351562e+00 7.942577838897705078e+00 1.385586242675781250e+02 1.295487165451049805e+00 5.541070938110351562e+00 1.295487165451049805e+00 1.155199356079101562e+02
2.667871665954589844e+01 -9.575842857360839844e+00 1.861666202545166016e+00 -9.575842857360839844e+00 1.865182876586914062e+01 -8.548737525939941406e+00 1.861666202545166016e+00 -8.548737525939941406e+00 3.058224868774414062e+01
1.244267730712890625e+02 1.603234672546386719e+01 1.208534145355224609e+01 1.603234672546386719e+01 1.370393676757812500e+02 2.943000316619873047e+00 1.208534145355224609e+01 2.943000316619873047e+00 1.502822418212890625e+02
5.159246325492858887e-01 -9.177027702331542969e+00 2.102026367187500000e+01 -9.177027702331542969e+00 -1.787936401367187500e+01 -9.937369823455810547e-01 2.102026367187500000e+01 -9.937369823455810547e-01 -3.389040756225585938e+01
5.338023757934570312e+01 7.001476764678955078e+00 1.971856689453125000e+01 7.001476764678955078e+00 7.490644836425781250e+01 1.350547218322753906e+01 1.971856689453125000e+01 1.350547218322753906e+01 4.094382858276367188e+01
1.057376556396484375e+02 -9.687493324279785156e+00 -1.634612321853637695e+00 -9.687493324279785156e+00 1.161492004394531250e+02 -7.724858760833740234e+00 -1.634612321853637695e+00 -7.724858760833740234e+00 8.722777557373046875e+01
6.492385101318359375e+01 -5.141114711761474609e+00 -1.594579100608825684e+00 -5.141114711761474609e+00 6.015856933593750000e+01 5.046232938766479492e-01 -1.594579100608825684e+00 5.046232938766479492e-01 7.884668731689453125e+01
1.343684387207031250e+02 -9.605432510375976562e+00 -1.441815376281738281e+01 -9.605432510375976562e+00 1.139278945922851562e+02 -1.185698127746582031e+01 -1.441815376281738281e+01 -1.185698127746582031e+01 1.209597091674804688e+02
2.495177078247070312e+01 -1.090405559539794922e+01 1.247909888625144958e-01 -1.090405559539794922e+01 2.067858123779296875e+01 2.983464956283569336e+00 1.247909888625144958e-01 2.983464956283569336e+00 1.275001621246337891e+01
-1.974759483337402344e+01 -1.852364182472229004e+00 -3.135593414306640625e+00 -1.852364182472229004e+00 -3.262504959106445312e+01 7.003463506698608398e-01 -3.135593414306640625e+00 7.003463506698608398e-01 -8.772727012634277344e+00
9.788621520996093750e+01 2.197972089052200317e-01 1.297941780090332031e+01 2.197972089052200317e-01 6.078450012207031250e+01 1.386665630340576172e+01 1.297941780090332031e+01 1.386665630340576172e+01 7.489311218261718750e+01
4.981468200683593750e+01 1.261282730102539062e+01 1.748832511901855469e+01 1.261282730102539062e+01 6.819983673095703125e+01 -1.760892105102539062e+01 1.748832511901855469e+01 -1.760892105102539062e+01 3.732146835327148438e+01
9.386528778076171875e+01 -2.394766211509704590e-01 -1.876163482666015625e+00 -2.394766211509704590e-01 5.926699829101562500e+01 -9.385233879089355469e+00 -1.876163482666015625e+00 -9.385233879089355469e+00 5.459567260742187500e+01
2.276755905151367188e+01 -2.981600046157836914e+00 2.394362449645996094e+01 -2.981600046157836914e+00 5.013710021972656250e+01 -5.880423069000244141e+00 2.394362449645996094e+01 -5.880423069000244141e+00 7.980586051940917969e+00
6.872600555419921875e+01 7.073338508605957031e+00 8.749553680419921875e+00 7.073338508605957031e+00 7.754980468750000000e+01 2.326499366760253906e+01 8.749553680419921875e+00 2.326499366760253906e+01 5.152677536010742188e+01
6.131612777709960938e+01 -7.789294242858886719e+00 4.623583704233169556e-02 -7.789294242858886719e+00 7.747541809082031250e+01 -9.899950981140136719e+00 4.623583704233169556e-02 -9.899950981140136719e+00 6.371195983886718750e+01
5.862681865692138672e+00 7.257449150085449219e+00 2.793456554412841797e+00 7.257449150085449219e+00 5.121275711059570312e+01 -2.913891077041625977e+00 2.793456554412841797e+00 -2.913891077041625977e+00 1.912687301635742188e+01
5.701759338378906250e+01 -4.938326358795166016e+00 1.410122203826904297e+01 -4.938326358795166016e+00 4.970184326171875000e+01 2.569936037063598633e+00 1.410122203826904297e+01 2.569936037063598633e+00 6.750370788574218750e+01
-2.725832366943359375e+01 6.373375892639160156e+00 -1.298859119415283203e-01 6.373375892639160156e+00 -1.299614620208740234e+01 -1.145818614959716797e+01 -1.298859119415283203e-01 -1.145818614959716797e+01 -1.040361976623535156e+01
8.933470916748046875e+01 -3.511559724807739258e+00 1.139507484436035156e+01 -3.511559724807739258e+00 8.016300201416015625e+01 -8.350488662719726562e+00 1.139507484436035156e+01 -8.350488662719726562e+00 8.975116729736328125e+01
-1.073063278198242188e+01 1.460633277893066406e+01 2.541392564773559570e+00 1.460633277893066406e+01 -1.728826522827148438e+01 -8.998416900634765625e+00 2.541392564773559570e+00 -8.998416900634765625e+00 -2.944181060791015625e+01
5.933729553222656250e+01 6.432456493377685547e+00 7.335828542709350586e-01 6.432456493377685547e+00 5.831741714477539062e+01 5.371994972229003906e+00 7.335828542709350586e-01 5.371994972229003906e+00 6.083658599853515625e+01
6.284452056884765625e+01 7.987139701843261719e+00 1.410519313812255859e+01 7.987139701843261719e+00 5.816678619384765625e+01 -1.868095874786376953e+00 1.410519313812255859e+01 -1.868095874786376953e+00 4.759560012817382812e+01
2.280533599853515625e+01 8.278755545616149902e-01 6.338682651519775391e+00 8.278755545616149902e-01 -1.002242279052734375e+01 -1.005286121368408203e+01 6.338682651519775391e+00 -1.005286121368408203e+01 -2.402130365371704102e+00
1.969955444335937500e+01 1.593448162078857422e+00 8.589607238769531250e+00 1.593448162078857422e+00 1.877157020568847656e+01 2.048234701156616211e+00 8.589607238769531250e+00 2.048234701156616211e+00 2.188970375061035156e+01
-1.371255588531494141e+01 8.701111793518066406e+00 -4.789177894592285156e+00 8.701111793518066406e+00 -3.196095657348632812e+01 -7.607346177101135254e-01 -4.789177894592285156e+00 -7.607346177101135254e-01 -8.529371261596679688e+00
7.248428344726562500e+00 6.782425880432128906e+00 5.576759338378906250e+00 6.782425880432128906e+00 2.388214683532714844e+01 -2.171341419219970703e+00 5.576759338378906250e+00 -2.171341419219970703e+00 2.714658927917480469e+01
7.243167877197265625e+01 -5.450237274169921875e+00 1.686540222167968750e+01 -5.450237274169921875e+00 3.412457275390625000e+01 -1.200429797172546387e-01 1.686540222167968750e+01 -1.200429797172546387e-01 8.065419006347656250e+01
8.321431732177734375e+01 -3.988542079925537109e+00 6.030864238739013672e+00 -3.988542079925537109e+00 1.077388458251953125e+02 7.394898414611816406e+00 6.030864238739013672e+00 7.394898414611816406e+00 9.419454193115234375e+01
8.928848266601562500e+00 8.088447451591491699e-01 -2.948780536651611328e+00 8.088447451591491699e-01 2.514784049987792969e+01 -1.417274475097656250e+01 -2.948780536651611328e+00 -1.417274475097656250e+01 2.389050865173339844e+01
6.862161254882812500e+01 1.261169719696044922e+01 5.256436824798583984e+00 1.261169719696044922e+01 8.109622192382812500e+01 -1.423561859130859375e+01 5.256436824798583984e+00 -1.423561859130859375e+01 9.457550048828125000e+01
4.654694747924804688e+01 -1.795056915283203125e+01 -1.281064414978027344e+01 -1.795056915283203125e+01 1.933883285522460938e+01 9.657829284667968750e+00 -1.281064414978027344e+01 9.657829284667968750e+00 1.621400642395019531e+01
1.053432388305664062e+02 -7.549890518188476562e+00 8.602352142333984375e+00 -7.549890518188476562e+00 9.994316101074218750e+01 1.837890434265136719e+01 8.602352142333984375e+00 1.837890434265136719e+01 7.482194519042968750e+01
9.068988037109375000e+01 3.654210805892944336e+00 2.193980979919433594e+01 3.654210805892944336e+00 8.609926605224609375e+01 -1.354392337799072266e+01 2.193980979919433594e+01 -1.354392337799072266e+01 4.548886871337890625e+01
1.209080352783203125e+02 5.082198143005371094e+00 2.043070411682128906e+01 5.082198143005371094e+00 1.242434616088867188e+02 4.893223762512207031e+00 2.043070411682128906e+01 4.893223762512207031e+00 1.036728744506835938e+02
1.102432861328125000e+02 4.588214755058288574e-01 1.224266719818115234e+01 4.588214755058288574e-01 1.397414703369140625e+02 -2.860338926315307617e+00 1.224266719818115234e+01 -2.860338926315307617e+00 1.141671981811523438e+02
3.042057609558105469e+01 5.676675796508789062e+00 1.537066364288330078e+01 5.676675796508789062e+00 2.534285354614257812e+01 -1.746788382530212402e+00 1.537066364288330078e+01 -1.746788382530212402e+00 3.804926681518554688e+01
4.965157318115234375e+01 5.315902233123779297e+00 2.569660186767578125e+00 5.315902233123779297e+00 1.066442108154296875e+02 1.320613265037536621e+00 2.569660186767578125e+00 1.320613265037536621e+00 1.147137069702148438e+02
3.705264663696289062e+01 -7.935093045234680176e-01 1.611571431159973145e+00 -7.935093045234680176e-01 4.541756057739257812e+01 8.145721435546875000e+00 1.611571431159973145e+00 8.145721435546875000e+00 3.981064987182617188e+01
6.276818275451660156e+00 -4.297676563262939453e+00 -6.333451747894287109e+00 -4.297676563262939453e+00 5.551155471801757812e+01 1.003040504455566406e+01 -6.333451747894287109e+00 1.003040504455566406e+01 4.123272323608398438e+01
6.483757781982421875e+01 -2.753676652908325195e+00 1.076006126403808594e+01 -2.753676652908325195e+00 7.278421020507812500e+01 2.083587074279785156e+01 1.076006126403808594e+01 2.083587074279785156e+01 7.864584350585937500e+01
6.113033676147460938e+01 -3.310482501983642578e+00 -1.662357568740844727e+00 -3.310482501983642578e+00 5.812221145629882812e+01 -1.858588981628417969e+01 -1.662357568740844727e+00 -1.858588981628417969e+01 5.088868331909179688e+01
3.137365150451660156e+01 1.549128341674804688e+01 4.339273452758789062e+00 1.549128341674804688e+01 1.796997261047363281e+01 5.541862010955810547e+00 4.339273452758789062e+00 5.541862010955810547e+00 1.987972640991210938e+01
6.655561065673828125e+01 1.731746864318847656e+01 9.232931137084960938e-01 1.731746864318847656e+01 4.894860839843750000e+01 -4.183003306388854980e-01 9.232931137084960938e-01 -4.183003306388854980e-01 8.194288635253906250e+01
3.447680664062500000e+01 -1.566375064849853516e+01 1.329810428619384766e+01 -1.566375064849853516e+01 7.407679748535156250e+01 5.821739435195922852e-01 1.329810428619384766e+01 5.821739435195922852e-01 5.847980499267578125e+01
4.777878189086914062e+01 -9.579687118530273438e+00 1.791037559509277344e+01 -9.579687118530273438e+00 5.746561050415039062e+01 1.028863310813903809e+00 1.791037559509277344e+01 1.028863310813903809e+00 3.418292236328125000e+01
1.108542709350585938e+02 4.127440929412841797e+00 -2.355006933212280273e+00 4.127440929412841797e+00 1.165809402465820312e+02 8.869346618652343750e+00 -2.355006933212280273e+00 8.869346618652343750e+00 1.388021697998046875e+02
4.920885848999023438e+01 -3.281980752944946289e+00 2.903993606567382812e+00 -3.281980752944946289e+00 6.115904617309570312e+01 -7.843848228454589844e+00 2.903993606567382812e+00 -7.843848228454589844e+00 4.364766311645507812e+01
9.414812469482421875e+01 7.368927001953125000e+00 -1.618726015090942383e+00 7.368927001953125000e+00 4.929340362548828125e+01 6.438127040863037109e+00 -1.618726015090942383e+00 6.438127040863037109e+00 4.584112167358398438e+01
-1.194286823272705078e+01 4.966526508331298828e+00 1.951851654052734375e+01 4.966526508331298828e+00 -2.017375183105468750e+01 -2.860275506973266602e+00 1.951851654052734375e+01 -2.860275506973266602e+00 -1.862498283386230469e+00
-1.197149372100830078e+01 1.355981111526489258e+00 7.997668743133544922e+00 1.355981111526489258e+00 -1.476091575622558594e+01 4.097249031066894531e+00 7.997668743133544922e+00 4.097249031066894531e+00 -2.677374458312988281e+01
-3.322140884399414062e+01 4.672363758087158203e+00 1.262953042984008789e+00 4.672363758087158203e+00 -4.482047653198242188e+01 -2.055469703674316406e+01 1.262953042984008789e+00 -2.055469703674316406e+01 -1.668409347534179688e+01
-4.180041503906250000e+01 -1.908725976943969727e+00 1.654787635803222656e+01 -1.908725976943969727e+00 7.320928096771240234e+00 -4.529390335083007812e+00 1.654787635803222656e+01 -4.529390335083007812e+00 -7.698105573654174805e-01
1.221206054687500000e+02 -7.435030460357666016e+00 2.904393196105957031e+00 -7.435030460357666016e+00 1.333793182373046875e+02 -8.408671617507934570e-01 2.904393196105957031e+00 -8.408671617507934570e-01 1.485423583984375000e+02
1.099342193603515625e+02 -5.626384019851684570e-01 1.614802169799804688e+01 -5.626384019851684570e-01 8.987439727783203125e+01 -8.403866887092590332e-01 1.614802169799804688e+01 -8.403866887092590332e-01 9.792875671386718750e+01