1.432915000000000028e+01 4.526606000000000130e+00 7.802830000000000155e+00 1.660875000000000057e+01 3.668935999999999975e+00 8.575150000000000716e+00 1.345645000000000024e+01 1.109036599999999950e+01 8.893390000000000128e+00 1.583874999999999922e+01 9.980565999999999605e+00 8.870380000000000820e+00 1.514855000000000018e+01 1.755386599999999930e+01 8.179980000000000473e+00 1.687505000000000166e+01 1.601156599999999841e+01 9.334709999999999397e+00 2.931810000000000027e+00 3.282436000000000131e+00 4.816600000000000215e+00 2.351309999999999789e+00 5.431505999999999723e+00 5.727890000000000370e+00 1.530319999999999903e+00 3.964106000000000130e+00 7.970519999999999605e+00 1.721955000000000169e+01 1.917375999999999969e+00 1.027213000000000065e+01 1.767640000000000100e+00 7.588855999999999824e+00 4.435240000000000293e+00 3.780829999999999913e+00 3.535235999999999823e+00 8.982409999999999783e+00 2.221870000000000012e+00 8.483005999999999602e+00 2.347210000000000019e+00 1.784450000000000092e+00 1.006896599999999964e+01 4.080580000000000318e+00 1.635059999999999958e+00 1.185796599999999934e+01 5.924699999999999633e+00 5.140599999999999614e-01 1.071586600000000011e+01 8.111779999999999546e+00 1.670905000000000129e+01 8.671675999999999718e+00 1.059983000000000075e+01 2.640369999999999884e+00 1.392836600000000047e+01 5.159760000000000346e+00 2.975499999999999812e+00 1.032616600000000062e+01 9.219390000000000640e+00 3.297620000000000218e+00 1.474336599999999997e+01 2.825520000000000032e+00 2.589939999999999909e+00 1.646066599999999980e+01 4.526690000000000325e+00 1.891569999999999974e+00 1.827596600000000038e+01 6.337290000000000312e+00 1.387580000000000036e+00 1.665266599999999997e+01 8.246280000000000499e+00 1.749214999999999876e+01 1.458556600000000003e+01 1.136453000000000024e+01 2.357540000000000191e+00 9.599659999999999860e-01 5.443769999999999776e+00 3.938810000000000144e+00 1.671176600000000079e+01 8.951219999999999288e+00 1.918709999999999916e+00 1.855985999999999914e+00 3.219700000000000006e+00 5.339400000000000368e+00 2.379916000000000142e+00 1.367652999999999963e+01 7.313519999999999577e+00 1.852696600000000160e+01 5.099009999999999820e+00 6.537099999999999689e+00 8.212500000000000355e-01 6.302439999999999820e+00 5.989150000000000418e+00 2.513755999999999879e+00 8.128439999999999444e+00 5.353720000000000034e+00 5.221555999999999642e+00 1.014142999999999972e+01 6.189149999999999707e+00 6.616626000000000118e+00 1.175412999999999997e+01 6.134400000000000297e+00 2.731196000000000179e+00 4.660040000000000404e+00 5.908360000000000056e+00 4.467395999999999923e+00 1.235983000000000054e+01 8.047679999999999723e+00 3.998965999999999799e+00 8.671150000000000801e+00 5.982730000000000103e+00 8.519306000000000267e+00 1.340072999999999936e+01 7.126319999999999766e+00 5.855655999999999750e+00 1.277269999999999905e+00 5.850430000000000241e+00 4.437916000000000416e+00 2.794420000000000126e+00 6.137870000000000381e+00 5.320176000000000016e+00 5.215160000000000018e+00 5.768169999999999575e+00 7.589176000000000144e+00 6.145360000000000156e+00 5.339059999999999917e+00 9.049436000000000035e+00 8.340559999999999974e+00 4.123499999999999943e+00 1.158946599999999982e+01 1.122183000000000064e+01 4.937229999999999563e+00 1.338826599999999978e+01 1.281493000000000038e+01 5.823369999999999713e+00 9.395825999999999567e+00 4.375980000000000203e+00 5.380899999999999572e+00 1.095896600000000021e+01 1.305183000000000071e+01 5.628149999999999764e+00 7.341406000000000098e+00 1.565532999999999930e+01 7.516119999999999912e+00 9.880765999999999494e+00 9.237970000000000681e+00 5.081909999999999705e+00 1.559706599999999987e+01 1.410632999999999981e+01 6.067070000000000185e+00 1.258796599999999977e+01 8.542669999999999986e-01 6.277269999999999683e+00 1.096026600000000073e+01 2.721359999999999779e+00 5.753540000000000099e+00 1.176986600000000038e+01 5.102680000000000327e+00 6.380760000000000431e+00 1.417656599999999933e+01 5.892559999999999576e+00 6.337019999999999875e+00 1.553006599999999970e+01 8.339660000000000295e+00 5.023539999999999672e+00 1.828796600000000083e+01 1.055813000000000024e+01 5.008899999999999686e+00 3.088819999999999899e-01 1.199103000000000030e+01 6.909019999999999939e+00 1.621246599999999916e+01 4.388480000000000381e+00 5.035720000000000418e+00 1.779036599999999879e+01 1.289382999999999946e+01 4.249469999999999636e+00 1.420216600000000007e+01 5.679110000000000547e-01 8.840820000000000789e+00 1.596296599999999977e+01 9.021300000000000097e+00 5.927529999999999966e+00 1.284899999999999931e-02 1.288450000000000095e+00 6.855800000000000338e+00 1.792636600000000158e+01 2.803139999999999965e+00 4.138300000000000090e+00 1.192655999999999938e+00 1.569270000000000109e-01 9.493420000000000414e+00 1.218655999999999962e+00 1.367393000000000036e+01 1.042875000000000085e+01 1.798876599999999826e+01 5.164889999999999759e+00 9.989950000000000330e+00 3.405449999999999866e-01 6.468490000000000073e+00 1.012855000000000061e+01 2.402715999999999852e+00 8.049979999999999691e+00 8.629139999999999588e+00 4.933516000000000012e+00 1.093833000000000055e+01 9.117039999999999367e+00 5.879255999999999815e+00 1.333602999999999916e+01 1.027425000000000033e+01 2.638856000000000090e+00 4.970340000000000202e+00 9.114100000000000534e+00 3.708406000000000091e+00 1.277862999999999971e+01 1.277785000000000082e+01 2.668995999999999924e+00 8.316940000000000666e+00 9.358169999999999433e+00 8.049226000000000880e+00 1.508812999999999960e+01 1.155664999999999942e+01 5.136376000000000275e+00 8.492380000000000484e-01 1.084755000000000003e+01 4.086786000000000030e+00 3.010650000000000048e+00 1.001195000000000057e+01 5.114046000000000092e+00 4.885580000000000034e+00 9.299429999999999197e+00 7.661296000000000106e+00 5.376389999999999780e+00 9.277730000000000032e+00 9.222035999999999234e+00 7.487849999999999895e+00 8.503049999999999997e+00 1.024526600000000087e+01 1.155692999999999948e+01 8.942740000000000578e+00 1.208826600000000084e+01 1.322183000000000064e+01 1.016864999999999952e+01 9.441456000000000515e+00 3.791970000000000063e+00 9.639680000000000248e+00 9.996066000000000784e+00 1.353683000000000014e+01 9.312799999999999301e+00 6.503345999999999627e+00 1.301020000000000065e+00 1.135495000000000054e+01 9.715246000000000492e+00 9.154469999999999885e+00 8.670909999999999229e+00 1.474046599999999962e+01 1.391083000000000069e+01 1.013395000000000046e+01 1.289526599999999945e+01 1.190050000000000052e+00 1.034624999999999950e+01 1.104976599999999998e+01 2.157469999999999999e+00 1.085324999999999918e+01 1.159836600000000040e+01 4.556239999999999846e+00 1.066934999999999967e+01 1.369086599999999976e+01 6.049509999999999721e+00 1.106155000000000044e+01 1.509096599999999988e+01 8.026609999999999800e+00 9.684820000000000206e+00 1.773516599999999954e+01 1.065943000000000040e+01 9.489829999999999544e+00 1.920826599999999829e+01 1.224512999999999963e+01 1.021804999999999986e+01 1.565726599999999991e+01 4.809560000000000279e+00 8.864779999999999660e+00 1.726306599999999847e+01 1.279172999999999938e+01 8.281409999999999272e+00 1.409236600000000017e+01 8.011829999999999785e-01 1.310105000000000075e+01 1.634966599999999914e+01 8.958700000000000330e+00 1.048775000000000013e+01 1.892636600000000158e+01 8.722790000000000266e-01 1.030284999999999940e+01 1.726426599999999922e+01 2.990479999999999805e+00 8.307169999999999277e+00 2.534460000000000046e-01 2.788189999999999835e-01 1.391275000000000084e+01 1.818456600000000023e+01 1.360552999999999990e+01 1.478175000000000061e+01 3.555985999999999869e+00 4.460060000000000358e+00 1.427704999999999913e+01 5.779595999999999734e+00 5.580470000000000041e+00 1.300985000000000014e+01 9.174660000000000037e-01 9.825029999999999930e+00 1.365414999999999957e+01 2.085586000000000162e+00 1.167722999999999978e+01 1.401774999999999949e+01 8.131436000000000774e+00 4.598629999999999995e+00 1.458014999999999972e+01 1.964416599999999846e+01 1.156142999999999965e+01 1.406535000000000046e+01 4.195765999999999885e+00 1.307483000000000040e+01 1.599155000000000015e+01 6.769195999999999991e+00 9.885300000000000198e-01 1.454574999999999996e+01 8.711786000000000030e+00 2.396189999999999820e+00 1.496025000000000027e+01 1.051216600000000057e+01 5.475450000000000372e+00 1.429335000000000022e+01 1.251046599999999920e+01 6.973010000000000375e+00 1.215825000000000067e+01 8.704646000000000328e+00 1.146782999999999930e+01 1.321894999999999953e+01 9.142865999999999715e+00 1.351543000000000028e+01 1.415934999999999988e+01 1.469396599999999964e+01 5.475889999999999702e+00 1.316724999999999923e+01 6.897765999999999842e+00 1.279092999999999947e+01 1.412834999999999930e+01 5.242886000000000379e+00 1.533142999999999923e+01 1.327635000000000076e+01 1.143666600000000066e+01 1.461763000000000012e+01 1.462165000000000070e+01 1.427836600000000011e+01 1.110039999999999916e+00 1.470374999999999943e+01 1.537756599999999985e+01 3.402740000000000098e+00 1.426784999999999926e+01 1.683976600000000090e+01 5.054359999999999964e+00 1.485214999999999996e+01 1.916266600000000153e+01 6.441040000000000099e+00 1.388144999999999918e+01 1.471786600000000078e+01 1.097762999999999955e+01 1.391525000000000034e+01 1.568036599999999936e+01 1.329203000000000046e+01 1.442295000000000016e+01 1.300256000000000078e+00 4.859569999999999723e+00 1.383784999999999954e+01 1.323436599999999963e+01 1.296043000000000056e+01 1.235735000000000028e+01 1.331756599999999935e+01 4.030659999999999799e-01 1.496935000000000038e+01 8.715589999999999726e-01 6.877659999999999885e-01 1.516045000000000087e+01 2.071435999999999833e+00 2.892339999999999911e+00 1.276764999999999972e+01 1.254039999999999877e-01 1.550262999999999991e+01 3.482759999999999745e-01 1.824896599999999935e+01 1.360472999999999999e+01 2.656359999999999832e-01 2.691565999999999903e+00 1.233572999999999986e+01 1.725384999999999991e+01 4.801489999999999925e-01 1.198013000000000083e+01 7.007120000000000015e-01 4.988926000000000194e+00 1.339053000000000004e+01 2.898070000000000146e+00 7.040026000000000117e+00 5.686379999999999768e-01 1.692364999999999853e+01 8.982506000000000768e+00 1.309592999999999918e+01 6.419700000000000406e-02 6.866075999999999624e+00 1.194342999999999932e+01 6.471479999999999455e-01 5.784635999999999889e+00 8.432399999999999618e-02 1.719665000000000177e+01 1.117356599999999922e+01 1.431243000000000087e+01 1.549424999999999919e+01 1.087386599999999959e+01 2.986299999999999955e+00 7.572299999999999587e-01 1.557806599999999975e+01 1.337963000000000058e+01 3.811919999999999753e-01 1.313806600000000024e+01 1.309052999999999933e+01 1.611224999999999952e+01 1.228296600000000005e+01 8.949390000000000400e-01 1.635420000000000096e+00 1.433715999999999990e+00 6.826860000000000150e-01 1.728764999999999930e+01 1.712420000000000053e-01 1.537252999999999936e+01 1.566424999999999912e+01 4.511536000000000435e+00 8.076529999999999987e+00 1.458805000000000085e+01 1.041046599999999955e+01 9.197060000000000457e+00 1.597475000000000023e+01 1.697216600000000142e+01 9.083420000000000272e+00 3.181420000000000137e+00 2.107575999999999894e+00 5.552509999999999835e+00 2.371370000000000200e+00 3.308365999999999918e+00 3.530159999999999965e+00 3.227240000000000109e+00 4.695876000000000161e+00 5.076640000000000263e+00 2.091540000000000177e+00 4.982465999999999617e+00 7.131630000000000358e+00 1.749090000000000034e+00 6.665105999999999753e+00 5.505300000000000082e+00 2.452300000000000146e+00 3.225686000000000053e+00 8.908739999999999881e+00 1.649585000000000079e+01 2.664925999999999906e+00 9.452650000000000219e+00 4.742709999999999981e-01 2.825375999999999888e+00 1.095712999999999937e+01 1.694314999999999927e+01 5.726569999999999716e-01 1.065302999999999933e+01 2.377710000000000101e-01 3.873946000000000112e+00 7.776950000000000252e+00 2.075289999999999857e+00 7.325105999999999895e+00 3.150990000000000180e+00 1.496879999999999988e+00 8.973715999999999582e+00 4.721470000000000056e+00 2.697830000000000172e+00 8.441755999999999815e+00 9.926899999999999613e-01 2.235269999999999868e+00 9.722246000000000166e+00 2.761800000000000033e+00 1.785139999999999949e+00 1.142916600000000038e+01 4.507789999999999964e+00 7.357190000000000119e-01 1.119336599999999926e+01 6.861710000000000420e+00 2.345769999999999911e+00 1.294646599999999914e+01 6.178399999999999892e+00 1.764140000000000041e+00 1.050236600000000031e+01 8.769249999999999545e+00 1.624824999999999875e+01 8.798925999999999803e+00 9.313150000000000261e+00 1.636635000000000062e+01 9.436095999999999151e+00 1.161192999999999920e+01 1.752035000000000053e+01 7.532516000000000211e+00 1.079082999999999970e+01 1.692344999999999899e+01 1.079526599999999981e+01 8.521509999999999252e+00 4.304479999999999862e+00 6.829705999999999833e+00 4.049780000000000046e-01 3.392090000000000050e+00 1.382476600000000033e+01 3.900999999999999801e+00 2.253439999999999888e+00 1.531136599999999959e+01 5.352199999999999847e+00 1.592254999999999932e+01 1.092896600000000085e+01 4.476899999999999658e+00 3.109510000000000218e+00 1.625566600000000150e+01 3.350890000000000146e+00 2.494079999999999853e+00 1.751416599999999946e+01 5.329659999999999620e+00 1.307309999999999972e+00 1.780506600000000006e+01 7.539369999999999905e+00 2.245179999999999954e+00 2.539800000000000044e-02 6.374130000000000074e+00 2.693480000000000096e+00 1.636226600000000175e+01 8.724019999999999442e+00 1.657734999999999914e+01 1.489976599999999962e+01 1.021602999999999994e+01 1.757665000000000077e+01 1.566226600000000069e+01 1.207253000000000043e+01 1.759694999999999965e+01 1.326606600000000036e+01 1.178303000000000011e+01 5.324039999999999884e-01 1.593416599999999939e+01 8.834709999999999397e+00 3.158770000000000078e+00 1.467516600000000082e+01 1.346260000000000012e+00 2.039789999999999992e+00 8.270009999999999861e-01 4.019790000000000418e+00 1.511700000000000044e+00 1.576915999999999984e+00 1.972699999999999898e+00 2.747240000000000126e+00 1.329566000000000026e+00 5.408299999999999913e-02 7.381879999999999775e+00 1.723876599999999826e+01 5.358920000000000350e+00 5.957349999999999923e+00 3.628296000000000188e+00 1.355842999999999954e+01 7.516879999999999562e+00 1.888996600000000115e+01 3.691860000000000142e+00 6.828599999999999781e+00 1.933076600000000056e+01 6.041769999999999641e+00 6.481419999999999959e+00 1.505425999999999931e+00 7.456450000000000244e+00 6.047760000000000247e+00 1.489816000000000029e+00 5.164670000000000094e+00 6.785519999999999996e+00 3.602815999999999796e+00 8.419330000000000425e+00 4.446170000000000400e+00 4.916616000000000319e+00 9.102759999999999962e+00 5.821500000000000341e+00 6.450266000000000055e+00 1.046823000000000015e+01 5.743260000000000254e+00 4.123526000000000025e+00 1.094872999999999941e+01 6.209859999999999935e+00 5.758875999999999884e+00 1.269983000000000040e+01 4.678040000000000198e+00 2.567466000000000026e+00 8.602510000000000545e+00 5.792449999999999655e+00 7.894275999999999627e+00 1.218913000000000046e+01 5.649239999999999817e+00 3.091575999999999880e+00 3.312199999999999811e+00 6.342629999999999768e+00 3.860046000000000088e+00 5.516479999999999606e+00 6.124830000000000219e+00 7.708706000000000280e+00 1.452502999999999922e+01 6.076019999999999754e+00 9.784356000000000719e+00 1.365752999999999950e+01 6.093759999999999621e+00 4.818526000000000309e+00 1.443880000000000052e+00 6.155479999999999841e+00 5.470265999999999629e+00 3.790680000000000049e+00 5.583479999999999777e+00 6.156895999999999702e+00 6.102350000000000385e+00 5.855349999999999611e+00 8.350395999999999930e+00 7.287499999999999645e+00 5.837270000000000181e+00 8.121375999999999706e+00 4.884190000000000254e+00 6.161599999999999966e+00 9.841896000000000200e+00 9.283110000000000639e+00 3.550969999999999960e+00 1.133336599999999983e+01 1.000913000000000075e+01 3.901299999999999990e+00 1.300376600000000060e+01 1.176572999999999958e+01 4.577320000000000277e+00 1.048076599999999914e+01 1.202552999999999983e+01 5.510939999999999728e+00 1.228756599999999999e+01 1.337593000000000032e+01 6.612079999999999735e+00 7.046456000000000053e+00 9.857299999999999951e-01 4.015520000000000422e+00 9.560216000000000491e+00 8.531719999999999970e+00 5.238889999999999603e+00 1.471576600000000035e+01 1.291023000000000032e+01 8.314880000000000493e+00 5.724785999999999930e+00 1.750210000000000043e+00 6.250820000000000043e+00 9.521936000000000178e+00 3.097579999999999778e+00 5.459740000000000038e+00 1.035056600000000060e+01 5.235619999999999941e+00 4.433769999999999989e+00 1.513436599999999999e+01 1.519122999999999912e+01 5.002030000000000420e+00 1.701476600000000161e+01 1.393063000000000073e+01 6.311309999999999754e+00 1.127186599999999927e+01 1.385860000000000092e+00 6.240929999999999644e+00 1.209566599999999958e+01 3.798389999999999933e+00 5.876319999999999766e+00 1.285876599999999925e+01 5.824259999999999771e+00 6.722100000000000186e+00 1.469166599999999967e+01 7.067910000000000359e+00 6.308290000000000397e+00 1.500586599999999926e+01 4.657750000000000057e+00 7.429750000000000298e+00 1.579376599999999975e+01 9.142849999999999255e+00 4.232240000000000002e+00 1.806226600000000104e+01 9.455740000000000478e+00 5.290619999999999656e+00 1.959466600000000014e+01 1.073222999999999949e+01 5.395599999999999952e+00 1.730406599999999884e+01 1.168862999999999985e+01 4.705729999999999968e+00 1.919606599999999830e+01 1.304932999999999943e+01 4.790079999999999671e+00 1.300666599999999917e+01 6.184669999999999890e-01 5.026980000000000004e+00 1.584076600000000035e+01 8.661989999999999412e+00 4.907140000000000057e+00 1.682115999999999945e+00 1.238532999999999973e+01 6.919889999999999652e+00 1.366836600000000068e+01 6.742080000000000295e-01 6.824089999999999989e+00 1.658766599999999869e+01 3.040109999999999868e+00 4.898979999999999890e+00 1.896476000000000051e+00 1.493453000000000053e+01 6.012139999999999596e+00 1.852946599999999933e+01 1.985239999999999894e+00 4.466789999999999594e+00 2.975999999999999757e-01 1.087089999999999890e+00 7.040149999999999686e+00 6.839650000000000452e-01 6.966769999999999907e-01 1.092634999999999934e+01 1.668636599999999959e+01 5.538990000000000080e+00 9.379429999999999268e+00 2.396116000000000135e+00 1.308272999999999975e+01 1.022514999999999930e+01 1.827816599999999880e+01 3.915779999999999816e+00 1.010844999999999949e+01 1.894266599999999912e+01 6.146609999999999907e+00 9.895749999999999602e+00 9.946760000000000046e-01 7.633099999999999774e+00 9.971550000000000580e+00 1.353466000000000058e+00 5.394809999999999661e+00 1.131874999999999964e+01 3.058955999999999786e+00 8.141159999999999286e+00 8.517459999999999809e+00 5.149216000000000015e+00 9.648139999999999716e+00 9.206690000000000040e+00 5.911465999999999887e+00 1.186053000000000068e+01 8.450910000000000366e+00 3.775975999999999999e+00 1.162723000000000084e+01 9.005660000000000664e+00 4.626065999999999789e+00 1.386552999999999969e+01 8.980389999999999873e+00 3.050856000000000012e+00 8.553670000000000329e+00 9.115669999999999717e+00 7.166985999999999635e+00 1.397922999999999938e+01 1.085415000000000063e+01 2.796346000000000220e+00 3.663510000000000044e+00 9.993349999999999511e+00 3.810226000000000113e+00 5.705829999999999735e+00 8.985569999999999169e+00 7.673525999999999847e+00 8.051469999999999461e-01 9.621689999999999188e+00 9.380475999999999814e+00 1.482323000000000057e+01 1.139664999999999928e+01 4.077256000000000213e+00 1.604309999999999903e+00 1.048615000000000030e+01 5.131035999999999930e+00 3.608229999999999826e+00 9.231680000000000774e+00 6.158286000000000371e+00 5.256800000000000139e+00 9.546049999999999258e+00 8.582665999999999684e+00 6.324169999999999625e+00 9.388680000000000803e+00 8.440616000000000341e+00 4.059379999999999988e+00 1.039794999999999980e+01 9.802645999999999304e+00 8.095190000000000552e+00 8.364209999999999923e+00 9.702866000000000213e+00 1.033902999999999928e+01 8.111100000000000421e+00 1.146546599999999927e+01 1.222733000000000025e+01 9.395559999999999690e+00 9.442095999999999378e+00 1.221092999999999940e+01 9.997949999999999449e+00 1.136936599999999942e+01 1.380343000000000053e+01 1.067895000000000039e+01 6.297956000000000110e+00 8.862330000000000485e-01 8.081049999999999400e+00 9.653206000000000842e+00 7.798049999999999926e+00 8.779930000000000234e+00 1.341176600000000008e+01 1.354043000000000063e+01 1.277154999999999951e+01 5.310215999999999603e+00 2.302480000000000082e-01 1.038335000000000008e+01 9.690265999999999380e+00 2.493819999999999926e+00 1.062304999999999922e+01 1.026766600000000018e+01 4.756770000000000387e+00 8.643750000000000711e+00 1.476766600000000018e+01 1.537392999999999965e+01 8.646200000000000330e+00 1.590066599999999930e+01 1.331672999999999973e+01 9.803539999999999921e+00 1.161246599999999951e+01 1.032240000000000046e+00 1.090324999999999989e+01 1.200926600000000022e+01 3.199699999999999989e+00 1.110984999999999978e+01 1.258746599999999916e+01 5.520059999999999967e+00 1.143154999999999966e+01 1.423366599999999949e+01 6.899560000000000137e+00 9.782610000000000028e+00 1.451746600000000065e+01 5.248960000000000292e+00 1.176675000000000004e+01 1.609786599999999979e+01 8.602320000000000633e+00 9.205120000000000857e+00 1.715826600000000113e+01 9.588609999999999189e+00 9.602100000000000080e+00 1.906116600000000005e+01 1.084342999999999968e+01 9.856949999999999434e+00 1.707406599999999841e+01 1.183073000000000086e+01 8.391270000000000451e+00 1.858276599999999945e+01 1.298592999999999975e+01 9.179560000000000386e+00 1.362576600000000049e+01 1.713109999999999911e+00 9.679069999999999396e+00 1.509866599999999970e+01 8.438230000000000786e+00 1.025985000000000014e+01 2.729590000000000072e-01 1.300543000000000049e+01 1.098155000000000037e+01 1.342736599999999925e+01 2.411800000000000055e-01 1.012105000000000032e+01 1.589316600000000079e+01 3.447849999999999859e+00 8.550330000000000652e+00 8.729440000000000532e-01 1.468032999999999966e+01 1.067975000000000030e+01 1.760306599999999833e+01 1.697980000000000045e+00 9.186280000000000001e+00 1.932686599999999899e+01 1.197049999999999947e+00 1.147985000000000078e+01 1.947406600000000054e+01 2.550859999999999794e-01 1.404894999999999960e+01 2.695816000000000212e+00 5.117099999999999760e+00 1.456964999999999932e+01 1.849576599999999971e+01 1.244073000000000029e+01 1.576335000000000086e+01 3.060566000000000120e+00 3.686809999999999921e+00 1.446795000000000009e+01 4.840796000000000099e+00 4.720989999999999576e+00 1.382024999999999970e+01 5.363255999999999801e+00 6.863590000000000302e+00 1.433745000000000047e+01 7.159215999999999802e+00 5.320619999999999905e+00 1.299745000000000061e+01 1.322116000000000069e+00 8.552210000000000534e+00 1.289594999999999914e+01 1.846116000000000090e+00 1.068502999999999936e+01 1.388114999999999988e+01 1.955926600000000093e+01 1.026432999999999929e+01 1.442554999999999943e+01 9.915359999999999729e-01 1.233352999999999966e+01 1.371814999999999962e+01 3.527486000000000121e+00 8.396750000000000824e+00 1.341714999999999947e+01 3.275116000000000138e+00 1.225882999999999967e+01 1.369335000000000058e+01 8.204845999999999862e+00 3.322379999999999889e+00 1.411425000000000018e+01 9.487225999999999715e+00 5.102979999999999627e+00 1.463635000000000019e+01 4.253006000000000064e+00 1.442083000000000048e+01 1.371274999999999977e+01 5.668826000000000143e+00 1.293973000000000084e+01 1.543294999999999995e+01 7.851096000000000075e+00 1.885320000000000107e+00 1.456954999999999956e+01 1.016096600000000016e+01 2.297820000000000196e+00 1.478924999999999912e+01 1.114926600000000079e+01 6.716569999999999929e+00 1.387255000000000038e+01 1.245446600000000004e+01 8.418039999999999523e+00 1.449494999999999933e+01 1.367926600000000015e+01 6.353909999999999947e+00 1.140734999999999921e+01 8.827106000000000563e+00 1.013302999999999976e+01 1.277105000000000068e+01 9.673555999999999599e+00 1.225752999999999915e+01 1.259665000000000035e+01 7.391746000000000372e+00 1.150522999999999918e+01 1.346095000000000041e+01 7.925405999999999729e+00 1.372302999999999962e+01 1.510055000000000014e+01 5.992455999999999783e+00 3.054700000000000193e-01 1.230835000000000079e+01 1.069306599999999996e+01 9.232670000000000599e+00 1.344764999999999944e+01 9.984766000000000474e+00 1.463932999999999929e+01 1.737154999999999916e+01 6.479146000000000072e+00 9.236900000000000110e-01 1.415835000000000043e+01 1.445286600000000021e+01 4.147719999999999629e+00 1.360885000000000034e+01 1.588456599999999952e+01 5.892890000000000406e+00 1.262565000000000026e+01 1.175656599999999941e+01 1.564212999999999987e+01 1.400905000000000022e+01 1.203926599999999958e+01 1.351892999999999923e+01 1.486214999999999975e+01 1.534926600000000008e+01 2.099000000000000199e+00 1.521144999999999925e+01 1.657346599999999981e+01 4.105710000000000193e+00 1.447344999999999970e+01 1.818046599999999913e+01 5.521980000000000111e+00 1.558675000000000033e+01 1.872336599999999862e+01 7.499929999999999986e+00 1.455054999999999943e+01 6.862829999999999764e-01 6.113789999999999836e+00 1.370674999999999955e+01 1.517576599999999942e+01 9.641260000000000829e+00 1.397095000000000020e+01 1.576156600000000019e+01 1.191962999999999973e+01 1.391864999999999952e+01 1.342876599999999954e+01 1.149633000000000038e+01 1.376965000000000039e+01 1.446096600000000088e+01 1.366512999999999955e+01 1.316735000000000078e+01 1.419386599999999987e+01 7.941730000000000178e-01 1.368774999999999942e+01 1.740486599999999839e+01 8.510249999999999204e+00 1.382414999999999949e+01 1.680636600000000058e+01 1.400553000000000026e+01 1.564155000000000051e+01 1.359036599999999950e+01 6.541019999999999612e-01 1.443464999999999954e+01 1.093965999999999994e+00 3.555989999999999984e+00 1.318464999999999954e+01 1.910966600000000071e+01 1.442202999999999946e+01 1.535105000000000075e+01 1.871156000000000041e+00 1.545490000000000030e+00 1.357784999999999975e+01 8.614070000000000338e-01 5.392700000000000271e-01 1.589145000000000074e+01 5.098300000000000054e-02 1.987949999999999995e-01 2.885000000000000064e-02 1.898826599999999942e+01 1.245762999999999998e+01 1.723025000000000162e+01 1.585066000000000086e+00 1.274212999999999951e+01 9.086400000000000032e-01 3.548275999999999986e+00 1.319223000000000035e+01 2.901560000000000250e-01 5.329125999999999586e+00 1.465243000000000073e+01 8.640670000000000295e-01 5.783126000000000211e+00 1.228412999999999933e+01 1.710695000000000121e+01 7.480915999999999677e+00 1.318373000000000062e+01 1.917140000000000066e+00 6.044795999999999836e+00 5.171019999999999506e-01 1.690895000000000081e+01 9.947965999999999198e+00 1.398403000000000063e+01 1.644215000000000160e+01 1.153566600000000086e+01 1.542003000000000057e+01 4.582069999999999754e-01 1.188516599999999990e+01 1.363743000000000016e+01 1.072670000000000012e+00 1.429236599999999946e+01 1.388803000000000054e+01 1.617174999999999940e+01 1.173446599999999940e+01 2.189309999999999867e+00 7.597540000000000404e-01 1.684196599999999933e+01 1.401562999999999981e+01 1.762894999999999968e+01 1.878226599999999991e+01 1.479992999999999981e+01 5.144069999999999476e-01 1.171195999999999904e+00 1.560502999999999929e+01