-1.057925488093356835e+05
-1.057900042252604180e+05
-1.057943489260556089e+05
-1.057977160710658500e+05
-1.057882458995677589e+05
-1.057936191368241853e+05
-1.057952105011904059e+05
-1.057947838323953911e+05
-1.057978355402805610e+05
-1.057993057308730058e+05
-1.057881920391878521e+05
-1.057961627576349274e+05
-1.057929869861901680e+05
-1.057953014685771341e+05
-1.057891149712580373e+05
-1.057899487323469075e+05
-1.057931107760476152e+05
-1.057989275639627740e+05
