1.392024677162605029e+00 1.208188214831366070e+00 -1.613111285173694620e+00 2.664119209012199452e+00 9.275615375514628669e-01 -3.028668757296165470e+00 5.277174762358382232e+00 4.343963482253296426e+00 -1.378737214926722521e+00 -4.116907286428880264e-01 2.905475367581107360e+00 1.095689586710034025e+00 -1.946856443935967684e+00 2.271839796620949592e+00 2.631505791156689256e+00 5.642492042109770178e-02 -3.198630517380942617e+00 1.989378894194165914e+00 1.587178108104033702e-01 1.417309936182064023e+00 -1.502259191652954629e+00 -1.424108961943783669e+00 3.706152953634735958e-01 4.689950692619658135e+00 4.508659622628496955e+00 1.796495233311142137e+00 -2.951750086103052673e-01 1.228480391098873747e+00 1.009371475802923523e+00 1.429274822842455661e+00 -2.899587540855068021e-02 7.314912511469310319e-01 1.764120413848722091e+00 2.464792877295066464e+00 2.047299168337475272e+00 -1.304347995232770341e+00 1.700088112765176573e+00 -1.595756337400434877e+00 -3.085791475172916964e+00 1.019810669721292529e+00 2.148899917698549711e+00 -2.298670288768072556e+00 -2.247249763953770962e+00 -3.860153818195535713e+00 -9.433028608473157384e-01 3.968601415841082947e+00 1.077485146382064940e+00 -8.801375358214212907e-01 -2.707371852628561240e-02 -1.896295181869195545e+00 -1.290903181470409944e+00 2.018033327074673922e-01 2.936369745720883717e+00 -7.641524915251941552e-01 4.517555640301901043e+00 5.179482604346183905e-01 -1.290881584202069998e+00 -1.321376927098230514e+00 2.148807872197767033e+00 3.081102296839751120e-01 -3.230791935263335746e-01 -3.772219511707644468e+00 2.664017393318596660e+00 1.719872753226693307e+00 1.152843157827271092e+00 6.709037143636246148e-01 5.098354008488785283e+00 2.007295370944267798e+00 -1.736934595215338176e-02 -4.380996626808396854e+00 -9.926032538195684873e-01 -4.034280765745895891e+00 1.982915654533066618e+00 8.933812892999488664e-01 -3.417274577186907081e+00 2.254409772629174302e+00 1.275065184687701692e+00 2.914011430782177392e-01 1.384459976816162730e+00 3.719214672994397564e+00 -1.775222438216860654e+00 -2.140313975092027476e+00 -1.513526280857692141e+00 -7.479709953317439375e-01 -1.149283208095885078e-01 1.422985389769426234e+00 -4.500003231789532876e+00 -1.598537242809554337e+00 2.361340933504844308e+00 -1.809350235959548803e+00 -1.460604231673081843e+00 2.489448215987940749e+00 1.412687606536617180e+00 -1.632252121350407315e+00 -2.639167679210661976e+00 -1.749147850461640008e+00 -2.883960374549012329e+00 5.640001157161217193e+00 -9.615849484971737970e-01 -1.671990066654762686e+00 3.701010232666428479e+00 -6.242248183913150505e-01 7.275590056470163658e-01 -2.645352725486714185e+00 -9.336601947541552093e-02 6.575226639649350835e-01 -5.739355790614925068e-01 2.872506623239335699e+00 -4.596387212405133593e-01 -3.805608374340697431e+00 -2.289202457704331006e-01 -6.400618381547414693e+00 -4.098421053171141248e-01 8.510516717947869125e-01 2.127084105571718453e+00 3.375416500040502310e-01 8.769169717353789695e-01 -1.076341519601391461e+00 -4.538826892734157958e+00 -3.569472069841312045e+00 -8.999437735512775260e-01 -8.559439672944846311e-01 -8.328179208883564888e-01 -1.638916935516014250e+00 3.650812010396038865e+00 1.133302257965592474e+00 -2.392723821285646313e+00 1.051058831685306227e+00 4.592962502711210315e-01 -2.564235442484159133e+00 -6.466798068168770897e-01 -3.315888257847208642e+00 6.898470898012284414e-01 -1.476753846184696961e+00 2.942658664573238325e-01 6.454076248675127969e-01 -3.063498466259905406e+00 -1.703453687081502299e-01 -1.563908594129647112e+00 -3.001268508641405486e+00 4.612306970275129814e+00 9.648836741257802441e-01 -1.986383558763670010e+00 -2.275028993245831188e+00 -1.889003018480377882e+00 -7.042663517422649566e-02 -2.441502280273014414e+00 1.386769856087199271e+00 6.764557549890436450e-01 1.431823814727257060e+00 -2.179478050123346833e-01 3.840817063941738274e-01 1.662514522280900131e+00 1.541761109667593388e+00 -1.906465438374663091e+00 -4.445139485337016083e+00 -1.389583157398829094e+00 6.637185088751577089e-01 -1.656997962882039932e+00 8.294518323513562219e-01 -1.333813354117379779e+00 -1.426148361139895071e+00 -2.674749693021580277e-01 -2.016743661622367512e+00 1.017353209116598878e+00 -5.119632460010488106e-01 1.350181512415769225e+00 2.709354687550448393e+00 -2.174742077708776977e-01 9.855558594719380228e-01 4.699334191492737789e-01 -4.106874841064248743e-02 3.332641567430995710e+00 -1.651587847162855338e+00 -2.014982970031978127e+00 2.840465532994836728e+00 -1.665698062478359498e+00 -1.277627546310047046e+00 5.295182256167916268e-01 4.410964379292250381e-01 -7.128332681838208673e-01 -1.633942878929028897e+00 4.032569953560957710e-02 1.219618311990003701e+00 2.628687347638311689e+00 2.482935096921389473e+00 -2.003202174373151845e+00 1.107197845411235670e+00 -1.687135922409239930e+00 -1.763950206805375398e+00 -9.475883759507925941e-01 1.432826545043045519e+00 8.103413351944543930e-01 -1.343331064586572809e+00 3.238025991715905327e+00 -9.904352994547666045e-02 9.289573895731075837e+00 -6.821450925346244087e-01 -1.662118058140657606e+00 -1.305604750561891736e+00 1.993222179517346593e-01 1.967734831772705695e+00 1.874539019340636603e+00 2.166876558267598618e+00 -1.287737124775892583e-01 2.774374292329539582e+00 -1.821223077119157763e+00 8.215909408962503158e-02 -8.897431780259987821e-01 -6.229243543048387233e-01 -1.749588023359237354e+00 -2.236444444914970742e+00 3.294422629999890439e+00 -6.233616475666575063e+00 -1.881020256725352890e+00 -5.545103788516356769e-01 -1.819869648303180876e+00 -1.552465641454140011e+00 1.539123671826732709e+00 -1.351356506657603040e-01 3.910845178093023122e+00 -1.542435767192882889e-01 2.913418534344175193e+00 -7.164433030089290000e+00 -4.219332845752274075e+00 -1.682953765661389989e+00 -2.301881596881969028e+00 1.883983710474013584e+00 1.390332376921959323e+00 5.171167656035261517e-01 -3.643467396498395239e+00 2.997775921818413458e+00 1.535453678870947192e+00 1.061585443118385097e+00 1.004633960726329711e+00 1.037003123761327306e+00 1.391776822797369251e+00 5.595266015339512844e-01 7.229587874905842870e-01 -6.446825737160966074e-01 4.239955151692980095e-01 6.429059412847895061e-01 -1.309282971048473243e-01 1.020186565034544524e+00 -2.379772145150383933e-01 1.442505720804114322e+00 2.786267702316139072e+00 -2.762804841368040817e-02 -1.870452507638292960e+00 -1.176708653563708573e+00 7.387859856391225666e-01 -1.311742488535865947e+00 6.070426487647755803e-02 -2.310929309654428554e+00 4.474532339106484180e+00 3.096585481356872727e-01 1.737076005900897835e+00 -2.886556674735892170e+00 7.942523987224615611e-01 -8.582764722752106445e-01 1.522865042532067781e+00 4.322297308342821220e-01 1.100949549992187526e+00 -1.392894738544304456e+00 -2.746184200718342794e+00 1.380800268273872700e+00 -4.194801434242019234e+00 -1.134168205581893796e+00 8.045820636371060486e-01 -9.871828536868889614e-01 -9.859332974472141409e-01 1.177688758169807420e-01 -2.213704578235589637e-01 -2.998389901304080452e-01 1.060290635459331110e+00 -2.330242409757186592e-02 1.824163905158128873e+00 3.161062583324088404e+00 -1.451627995574414465e+00 7.171167264045988365e-02 -2.743646007467711367e+00 4.315951825216242099e-01 -1.323660581114854073e+00 -1.023006036994271284e+00 -1.484545317848709800e+00 -6.592113646608577238e-01 -5.781094054344110056e+00 1.689160923426457517e+00 -1.297268719203304554e+00 -3.337672702512879397e+00 4.374413573730077331e+00 7.290718428721698618e-01 -1.254714901483945821e+00 -1.882770149681572525e+00 5.168658259142417943e-01 1.461798766300556940e+00 8.056860954258227014e-02 -1.046781029891950876e+00 -2.130930476218947586e-02 1.056350162428620232e+00 -2.463255871698199206e-01 1.028855811390378294e+00 1.358599819082318305e+00 -1.146079613292110055e+00 1.874854750834941353e+00 2.765787321281667488e+00 4.980834529699064817e+00 -5.017647073584691420e+00 -1.979579905015877328e+00 2.547473391148901811e+00 -2.151077128035497221e+00 4.775075811561317884e+00 -1.189464411621886236e-01 6.617969690577022668e+00 -9.031519963411257512e-01 -5.126245852108618273e+00 -1.943705299641018458e+00 4.569375200359819811e-01 -2.034693048495654022e+00 3.492310172269036173e+00 3.189609029862896072e+00 -7.527007970982164953e-02 5.247822532022220487e-01 7.806106384416671151e-01 -1.508877725957832525e-02 1.269527542241176032e+00 3.832193583225958489e-01 -6.263722039291264032e-03 -1.172022046333916490e-01 -1.471224431268967514e+00 5.207204240922672644e-01 -2.850895470941059884e+00 5.180636001319678385e+00 7.292497632256379481e-01 -1.224482839573264176e-01 -4.117144342159945403e+00 -3.395995611444528328e-01 7.323529821536992834e+00 7.481746267189501864e-01 -1.471697514289749709e+00 -2.143035230902874400e+00 2.290617593001279761e+00 6.446368080760426222e-01 1.482143393076890581e+00 -2.630641900423086987e+00 -1.004421587587652542e+00 -1.079405760602305669e-01 2.134812842313409842e+00 3.321745745553436269e+00 -4.235041773145616695e+00 -3.665874562401204351e+00 -2.708192548825483659e+00 2.730394540679062398e+00 2.450747453784583030e+00 2.003653145904919608e+00 3.071101733156955227e+00 -4.190718522084397879e-01 1.871981799925038992e+00 3.124494294258973959e+00 3.280422972129461101e+00 -8.678589745494240670e-01 -1.861711784608667264e+00 -2.231910047004908026e+00 -8.270262534284979206e-02 2.017998874289464784e+00 -2.179791724734952141e-01 -2.173379392920654352e-01 2.347085707959057466e+00 -4.190679441313116094e+00 -1.935640262578031567e+00 2.355994066928656760e+00 3.876690640875247507e+00 7.400005748729133748e-01 2.900195863913312522e+00 -2.969237702810402002e+00 -4.164949895630661203e+00 -5.817021110227794445e+00 -2.883336110649849626e+00 -4.294565387352838881e-01 8.814667962656842493e-01 8.036888623250421082e-01 1.071776268450843173e+00 -9.933617293148444549e-01 -1.941438100685987100e+00 -9.471358617570010408e-01 -4.878746299138313702e+00 -1.922015985800179294e+00 -1.022881595590978687e+00 -1.172983638995723554e+00 1.430457530394411148e+00 2.290919954758040333e+00 1.292518862830516202e+00 -8.365264803947491945e-01 1.189510691482615012e+00 -2.929250874699461438e+00 1.165260044460779687e+00 2.509885402485731998e-01 -3.025770095352525502e+00 -2.461322401961089090e-01 2.126124569792609886e+00 1.357640283303210182e+00 4.437852978375620983e-01 -1.714506346264863534e+00 -2.971173229430210672e+00 -4.175192657251270312e+00 -5.030389461905324655e-01 2.099008170950319219e+00 2.978215481571093726e+00 7.093535368776979766e-01 4.726931900886607529e+00 5.558420561330700949e+00 -1.342549963381607592e+00 1.832551872804867310e+00 2.515188560304565168e+00 9.722503995124385234e-01 2.276377794075735705e-01 2.393327002137144000e+00 -2.283758403420612648e+00 1.217116114186605813e+00 -9.165381889465626930e-01 2.462954538382787995e+00 1.348907787804380698e+00 7.134760440272750470e-01 2.032102404736196855e-01 -1.558210000611920609e+00 -5.999325194948239570e-01 -1.494186955500520941e+00 -9.241851646009672239e-01 -5.569390430985425855e-01 -1.603751954672328450e+00 1.505679273360804871e-01 1.618939462301461685e+00 1.384211094009577314e+00 8.531661472094134169e-01 4.212896859786937620e-01 1.163810970599296724e+00 -2.193092042487704507e+00 1.952002250228323799e-01 2.597585738566605615e-02 -9.207378291973543349e-02 -9.363130592152587583e-01 -8.308973066681157871e-01 1.858236167067942368e+00 1.409591483853867455e+00 -1.231655703765536902e+00 -4.414655969516375400e+00 5.934739078197973638e-01 9.889779980624874289e-01 -2.394020685827399131e+00 -9.184891421866145933e-01 2.080002060590394608e-01 -8.224712866914450915e-01 -6.940698699823844020e-01 3.134123590614590893e-01 8.898187684651890361e-01 -1.640719278981059182e+00 -1.933596235395847351e+00 1.812996060543620391e+00 -1.255014177916657925e+00 -2.446638830593224512e+00 -6.578713055824246814e-01 -1.623712972825288814e+00 -6.958022794356617524e-01 -1.697352458775436279e+00 5.752309009412213126e-01 3.337698413546617004e-01 1.486936958207033532e+00 -1.461590506927277877e+00 -4.480851596978649987e+00 -1.678175627151490046e+00 2.122942058036500157e+00 1.724541876953543384e-02 9.240545525495772730e-04 -1.067212559962319451e+00 -1.255681636352500519e+00 -3.278889051856642478e+00 4.082774860700118857e+00 -1.642714969419815541e+00 -3.208219704523927795e+00 7.590565646382902987e-01 -6.271101105974118406e-01 4.230959375208672490e+00 1.689500309071801043e+00 -6.066513268312806462e-01 -1.953001895220063622e+00 1.559075434007547001e+00 2.043813266383255112e+00 1.804814295387462186e+00 -4.042557147506209425e+00 1.254639825265430275e+00 3.440750293651873903e+00 -9.399768815229470054e-01 -2.898923167743273854e+00 -1.080660459048728095e+00 4.485932611465985320e-01 6.634644838618246609e-01 -2.838131485352086258e+00 7.520554501513885270e-01 9.665245522989497351e-01 6.167948438616607243e-01 4.495513056857499912e+00 8.858356151184729743e-01 -1.571235210303673746e+00 -5.524894915998160849e-01 -2.826166598691695064e+00 9.414814912173043171e-02 1.049384014947602362e+00 -5.061232417977624687e-01 5.215025537385821197e-01 -1.665849757577414492e+00 -8.348691471599871683e-01 -4.303471689439738457e-01 -9.013820487785905167e-01 -3.250373458558321049e-01 -2.994239112017391236e+00 6.206561269084580612e-01 -1.910026416547399020e+00 -2.058517920798785539e-01 -2.164747170453403591e+00 9.983054468820181659e-01 -2.211150444144040161e+00 -3.591512082182340304e+00 -1.185401554070581565e+00 4.619570337306160290e+00 1.570942618739733510e+00 -1.799530677954269686e-01 1.768651212214061186e+00 -3.426666303590783169e+00 -1.469362438205649823e+00 -3.394421067738402797e+00 5.999201781986295279e-01 -4.216974629737810232e-01 -7.380974441556146237e-01 -7.097186335567797766e-01 1.906245351925864417e+00 6.145353582167509821e-01 -4.793709111932039635e-01 3.442548523351520728e+00 2.117187414465224737e+00 4.408877671794059872e+00 5.169100488922714343e-01 3.938189890914909341e-01 8.756884985433696089e-01 -4.051990011564067018e+00 -2.137364919522259932e+00 1.303333952062137202e+00 1.616228490904109583e+00 -7.316038654747041292e-01 4.474403269717118548e+00 -9.632978175648103658e-01 -2.268922108512342994e+00 3.679547175922484925e+00 -1.085802665796360644e+00 1.078183972279068259e+00 2.240771611893102921e+00 3.640661294276212434e+00 6.605092576439601793e-01 -2.502261052541017161e+00 -5.472177012421431952e-01 -5.402892975586529367e+00 1.320009614324035019e-01 -9.497619867430170393e-01 -3.137543158101765983e-01 -2.020443993597964116e+00 -8.602875893342099012e-01 -1.059087873301059801e+00 1.491023469909377397e+00 9.617767528088606577e-01 -5.171579032575072121e-01 2.399443657063452751e+00 1.127952820286030278e+00 -2.742763604789817844e+00 -1.613943294225461678e-01 5.287386670738505323e-01 -1.919503503583285808e-01 -9.820061941540471073e-01 1.158261501077251648e-01 2.358593966660259333e+00 3.384718752046969592e-01 -9.473544055437754796e-01 -7.709849416307736902e-01 1.661122526914316166e+00 3.399302050383256057e-01 2.310984845487302763e-01 -2.098990687447376935e+00 -5.170961967765357326e-01 4.351669593285298898e-01 3.446046766601935207e+00 1.036163915620113674e+00 -3.995828372128448436e+00 2.833535895181727327e+00 3.545453850564470044e-01 -1.261076839672116812e+00 -3.237229978111371698e-01 1.440610303396936853e+00 1.537451940413077311e+00 -4.054851135398449546e-01 7.143527902777463412e-01 3.583017670855925818e-01 1.955133854137631744e-01 2.975126557977790798e-01 9.250536833206425280e-01 5.135110502320862080e-01 -1.987154375555140115e-02 9.276319857839053773e-01 -2.089480690288305187e+00 -6.077327329103078268e-01 6.611525991301565597e+00 2.214367922906033959e-01 7.019647000020247107e-01 -1.319439343595722347e+00 1.991157069287497361e+00 -4.811891954991668330e-01 -9.619731851066201656e-02 2.050696624335636431e-01 1.248090196530970752e+00 1.915883390032952382e+00 1.855975652981682877e+00 -7.785738103489299178e-01 -8.379657840634114896e-01 7.699019928897222753e-01 1.430669903533088316e-01 -7.246726849995702713e-01 3.218116395630421511e-01 6.596433100276589689e-01 -1.123749580490515321e+00 -7.211795839559033139e-01 -1.511613379947573110e-01 4.248979724535075220e-01 1.403991620705695498e+00 2.829710093361488266e+00 -1.943782946962907543e+00 4.955734904343194747e-01 -1.430027127689634248e-01 2.848356249249078598e+00 -5.889965884046336475e-01 1.560962623883928257e+00 -9.140843278865925514e-01 1.860410806301516118e+00 -1.335800817025339926e+00 1.564564225489970095e+00 -1.863749641142753877e+00 -7.184161620497255818e-01 -2.036775128007770608e+00 -7.038508614370563299e-01 2.769618265308654292e-01 9.853033771206293201e-01 2.441659631799491859e+00 4.149730506319693646e+00 -2.874376329612774672e+00 2.025065809022736474e+00 8.224291205961142825e-02 3.674976268344513741e+00 -1.269833503542660225e+00 -8.874019312938018489e-01 4.123107245104499441e+00 2.498882108487147757e+00 8.447833217694228347e-01 -6.490529352309095668e-01 1.005752904914614554e+00 6.134935471296806275e-01 -3.456690620348859877e+00 3.449868968877450648e+00 -4.601092331579217237e-02 1.460030875620720980e+00 -1.283654212618272339e-01 -1.355017757861917693e-01 -3.653222676919329004e+00 -3.191303901206915761e+00 -3.955596260755645521e-01 1.366297702583524565e+00 3.231041846511270688e+00 -7.598042414993960714e-01 1.899309543464658079e+00 2.942972853405518840e+00 1.061845124559140485e+00 -8.821013445783419948e-01 1.946461008237075019e+00 -3.806816792926391302e-01 -1.616540108633015838e-01 -6.728047881982244238e-01 3.906210507151381406e-01 -2.852297750721139558e+00 -3.395861914069089882e-02 5.103578490544380397e-01 2.068048486784847650e+00 7.575396136477386966e-01 -7.476007564459143939e-01 1.420044047509780416e+00 -4.328297235175957880e+00 4.943995246338349636e-01 -1.286046367197271056e+00 -4.853245581656129293e-01 -6.583207344521677662e-01 -2.378691253292032126e+00 5.258420620129092837e-01 5.395280452717333697e-01 -5.483957808080257984e-02 -6.496057224562800103e-01 1.626626032947822820e+00 -1.572795355830905739e-01 1.007861723901818829e+00 7.113492273164541135e-01 -1.073717451498074515e+00 9.966116039793480041e-01 2.823858262082682424e-01 -7.144762032396895224e-01 5.251895159766345467e-01 1.329337063143565700e+00 8.116788231695136746e-01 -1.655692870809490680e+00 -9.503646533738394631e-01 1.951804275268540056e+00 -3.178332170465337558e+00 4.882631750556825523e+00 -7.117611180769394252e-01 1.286864492290819451e+00 -1.906046348524730982e+00 -1.751926184767386374e+00 1.167571980614515059e+00 -1.856518670014233319e+00 9.161576656472381064e-01 3.722746854809346195e-01 1.269960001828652096e+00 1.301692045447617962e+00 1.643022473383324022e-01 -3.716175114585871797e-01 1.174034706054939869e+00 -1.908497124260652988e+00 9.618245753316135849e-01 -8.001731869937531272e+00 -9.563769215031715509e-01 6.342253820741109438e-01 1.795025076401994157e+00 3.133635595194240508e+00 5.520390342887234736e-01 8.354661573633874738e-01 -1.210995859715573442e+00 2.875465963222598287e+00 -6.005012475611121170e-01 7.888453683273259631e-02 -1.903194480662494081e+00 -1.019874433084963172e+00 -3.312758196599924432e+00 -6.299537509288525294e-01 1.174944876649270942e+00 6.208386752479989612e-01 -7.878061283436293971e-01 -1.042531510235707115e+00 -1.911408641721162649e+00 1.133720319374175167e+00 -1.668820924636196801e-01 -3.632933071755195531e-01 2.490140871236846909e+00 -1.276971400729049133e+00 -1.292729179086494540e+00 7.101104697109493769e-01 -1.498809285145968007e+00 1.779753750802874901e-01 -4.564330695540392280e-01 1.225702571013802533e+00 -4.087488721625673893e-01 9.812873136507280908e-03 2.549025309145337204e+00 -2.013794091831925481e+00 2.252631083315168037e-01 4.263286372148338721e+00 -4.111025116130262447e+00 2.198807605287697933e-02 -9.877474679877790154e-01 -1.763001469660437248e+00 -1.651072083826068182e+00 -2.566627082842483087e+00 4.352277916343543218e+00 -6.879053925333222796e-01 4.703483438117403104e+00 1.962038809358352953e+00 -4.928548057268460764e-02 3.728432592810203783e+00 2.040626640861747276e+00 -8.260435777190253681e-01 -3.258005521813156946e+00 1.491759319694963282e-01 -2.234314542880100785e+00 -5.782084443363704196e+00 2.447730521085747402e+00 1.536611703830514042e+00 -7.233958750641330537e-01 1.551505077233682472e+00 -2.081225905796330711e+00 1.530458539236296822e+00 -2.809326385813872839e+00 8.994079556081742421e-02 -4.149765987546252255e-01 -1.034173881608779988e+00 1.034753922529912717e+00 5.942154140328060885e-01 4.472003401827998381e+00 -1.742578681341539815e+00 -7.346691349169679475e-01 -1.873357340230030754e+00 6.892948167965327055e-01 -2.881234490752092370e+00 4.613783297832375063e-01 -3.142371176017118461e+00 8.871833875070274100e-01 3.469189268069655885e+00 -2.700573855308191495e-01 2.837263995073760828e-02 -1.606233069428061322e+00 2.872031483335854229e+00 -1.136849352180109574e-01 -2.549470110029007142e+00 5.778143456112318915e-02 2.128113575362594379e+00 -2.850975689366323618e+00 7.956989014805706528e-01 1.878392074856637617e+00 2.521791153768525362e+00 5.351900796594304399e-01 1.765731981443430021e+00 -1.551329727983588258e+00 -9.096106080161522334e-01 3.901444195717001406e+00 -1.493464989673153331e+00 1.174737131496666587e+00 -4.265963404981156337e+00 1.774923676004823481e+00 -8.611663924673803594e-01 -8.975665313718471650e-01 -1.289635113286443868e+00 1.715851547550044376e-01 -5.034506826848153871e+00 -1.555963884704554490e+00 2.308865227865928738e+00 3.796041812907401614e+00 7.496724487004006399e+00 -9.349724859161507862e-01 -3.177366978258806984e+00 2.028440125090532398e+00 5.570408587921457100e-01 -4.178048124658231832e-01 -1.164036199254843001e-01 3.334201712958227426e-01 -6.007516730297218777e-01 -2.015155748178698580e+00 4.034688542740981765e-01 2.722093476326358452e+00 1.014241659813606367e+00 9.541832561046315053e-01 -1.606092172963176079e+00 1.408800098235406972e+00 8.623352160611171824e-01 -2.854941359210097396e+00 -7.099212365026366101e-01 -2.623722547023472185e+00 2.569358623066825942e+00 2.177591888688314992e+00 8.494730143232637198e-01 -1.610032131773212249e+00 -1.144500441599912044e+00 4.016454277613876744e-01 -4.019277349118327569e-01 -6.336324856361089664e-01 2.421399337213819614e+00 1.373754930808941399e+00 9.905617977407582542e-01 -2.428808228695808202e-01 2.174896858131881050e+00 -1.446169028891127750e+00 1.560264312207599868e+00 -4.761066383498067656e-01 1.067784373352656191e+00 -1.328658806073552967e-01 9.430282670069922712e-01 -7.162132406790397976e-01 -1.236307858210119903e+00 1.499312192965886359e+00 -3.270605985227556189e+00 1.171609127132081429e+00 1.968812124086334769e+00 -9.682183952016198969e-01 -1.600497966242426573e+00 -2.908457847494734239e+00 2.060893620316191388e+00 9.139012653263769437e-01 4.270463864326684567e-01 -1.425722586421191096e+00 1.161502119769609598e+00 4.339564838601370766e-01 -2.879097903848450990e+00 1.529767426649415007e+00 5.422719267922700981e-01 -3.291941515244158012e+00 4.174083483255806165e-02 8.418862024878066563e-01 -9.409569861290456583e-02 9.206447552552222691e-01 -5.479085567186875672e+00 3.742010075506652100e+00 -6.115744755714640490e-01 -9.994896970959979976e-01 -1.656193207526035271e+00 -3.977037720231249018e+00 3.211930835133693929e+00 7.789461061174584033e-01 1.744401079412900568e-01 7.365650665448201240e-01 8.400535200029504157e-01 2.626947739095587819e-02 3.692411434543036997e+00 -1.656941912828490571e+00 -1.766265742503834446e-01 5.628093863216399734e-02 1.327994432961758786e+00 2.188423947202203568e+00 2.763548918684423317e+00 1.969559800947440431e+00 -2.166822050876073380e+00 -1.808245689950157331e+00 -2.134200919710441902e+00 3.184198399923036660e-01 -5.682878933905677332e-01 1.596484988096574131e+00 -1.311846875332842943e+00 -1.492053968141602960e+00 -1.901981948311402215e+00 -3.240135324923784088e-01 -1.519848624053906416e+00 -1.010938306198927217e+00 2.508473866733506696e+00 -1.823439368227387281e+00 -2.806380415568154429e+00 -1.828054498783387716e-01 -2.417752484188398387e+00 2.499117621556188884e-01 -5.484322904759340034e-01 1.585272406283361413e+00 -2.706094014251775093e+00 -1.515682408146974858e+00 -4.973526939690003368e-01 -3.216367016894877029e+00 -8.624354890926960726e-02 1.016706833728421522e+00 -9.902620070873713320e-01 1.694110297421053679e-01 -1.313145282536620329e+00 3.732949507217323326e+00 -1.706419197712861768e+00 -6.416389015421729569e-01 2.528469337671676032e-01 5.506686361904793159e-02 -1.669021470699354470e+00 3.065131116902278574e+00 5.076268230507702262e-01 -7.265758157168689557e+00 4.156188603774045309e-01 -7.085297553567272422e-01 -1.018110656170525263e-01 -5.170010659517044749e-01 -3.510570662650553952e+00 4.285247708726128701e-01 -1.769083671801537361e-01 -2.974699754817737296e-01 1.064894453160486615e-01 -2.488331328682354737e+00 -2.345166636400841220e+00 7.829518851738641594e-01 1.039417904050015551e+00 -6.749022943305837963e-01 -2.990848340888002443e+00 -1.561251101682470388e-01 1.292094630773836350e+00 1.300008486958443177e+00 -8.183431231144454587e-01 -1.471147812388427845e+00 5.839383024711224834e+00 4.335081862758785043e+00 -1.281477516501999370e+00 -4.888629106286589421e-01 1.312115812745743959e+00 -5.342032901845598231e-02 -1.806518936924302432e+00 -3.617042624463661316e+00 -1.504511478208417685e+00 -1.901176678734723069e+00 -1.695545487324318090e+00 -1.477480954218812093e+00 -6.085333745009141593e-01 -2.712539770409932438e-01 -4.697477854856842994e-01 -1.183061335779734158e+00 1.160137378098788030e+00 6.726206971966592896e-01 4.173774950850948906e-02 -1.115497367101914605e+00 -6.656108409582864871e-01 6.875156132618518434e-01 3.968904291818518559e-01 2.392812781462380634e-01 1.227966170424110492e+00 -1.850893095832323088e+00 -3.543252986076482758e-01 -9.856412201039488341e-01 1.195973931143714308e+00 -4.985071193838438997e-01 -5.713605676105481201e+00 4.027317189368250006e+00 5.423426321350500956e+00 2.527622930441015381e+00 1.850596904723659453e+00 3.942319597153932431e+00 2.682763822237765439e+00 -2.621188981758913794e+00 2.569946377298080176e-01 2.500717876296052467e+00 1.503796197249822164e+00 4.943059364710280512e-01 -1.373073588414880142e+00 -3.146536877703375867e-01 4.804034663081285239e-01 -2.388834256101736830e+00 -1.157884577322650044e+00 9.214639087901201897e-01 -3.021951492621732793e-01 -1.095153254546255894e+00 8.373440912676227699e-01 1.867339415673276548e+00 1.843697605930360695e+00 7.912179825206835382e-01 1.209401775623807351e+00 8.408186803669980280e-01 1.383029929119646173e+00 -2.766183271201235194e-01 -1.701285218496025431e+00 4.992805072786877241e-01 -6.793240779128730811e-01 -5.267362917663225286e-01 -3.339760438452418212e-01 -1.447808878622947881e-01 2.307824959440882395e+00 -1.053357912322173018e+00 1.924221478274238395e+00 7.362477923884912512e-01 -1.140584651161589802e+00 -2.635521340405915680e+00 -5.748811280382472688e+00 -6.042242052463980828e-01 9.873859708534205026e-02 -8.255478689885534793e-01 3.811424210172270066e-01 3.684965519172465065e+00 -9.739642970214247297e-01 2.558621695377769178e+00 1.712334278134663712e-01 -6.142227120464949230e-01 -6.911074446750731237e-02 -4.351213479546783169e+00 -6.953183977807094740e-01 3.241276894821758514e-01 1.508686950087495315e+00 1.623803989884722077e+00 8.008575632897956265e-01 1.521944073303566958e+00 -4.645037630444485699e-01 -1.892469894269631636e+00 -2.272623983149963944e-01 -2.089467834771436383e+00 1.142963950223719438e+00 2.560793763507969167e+00 -1.649280024774518072e+00 6.688473458852464137e-01 -8.889898447374706969e-02 -2.271862936551314327e+00 5.171527610507596906e-01 -1.471355043320357325e-01 -2.946391906672020111e-01 -2.145113196649592879e+00 1.668784929188963373e-01 -5.341230717592967414e-01