-7.301720000000000432e-01 2.590549999999999908e+00 5.888060000000000516e-01 -8.895189999999999486e-01 2.326569999999999805e+00 8.908500000000000085e+00 -2.715629999999999988e+00 5.999869999999999592e+00 7.019609999999999461e-01 -2.740709999999999980e+00 6.010550000000000281e+00 9.004269999999999996e+00 -4.746660000000000323e+00 9.368940000000000268e+00 1.000059999999999949e+00 -4.882699999999999818e+00 9.685349999999999682e+00 8.974140000000000228e+00 -7.384280000000000399e+00 1.362819999999999965e+01 6.660150000000000237e-01 -7.230220000000000091e+00 1.342239999999999966e+01 8.785600000000000520e+00 1.315330000000000110e+00 1.528720000000000079e+00 1.645639999999999858e+01 -9.318799999999999306e-02 1.586859999999999937e+00 1.631820000000000093e+01 2.196219999999999839e+00 2.196680000000000188e+00 6.902070000000000149e-01 3.547620000000000218e+00 2.134659999999999780e+00 3.950670000000000015e-01 1.704569999999999919e+00 2.950289999999999857e+00 1.711619999999999919e+00 1.437659999999999938e+00 1.567320000000000046e+00 8.610049999999999315e+00 5.822599999999999998e-02 1.597650000000000015e+00 8.319219999999999615e+00 -9.944000000000000061e-02 7.178740000000000121e-01 7.224540000000000184e+00 2.308860000000000134e+00 2.437419999999999920e+00 9.074730000000000629e+00 3.670310000000000183e+00 2.071579999999999977e+00 8.982540000000000191e+00 1.743000000000000105e+00 3.389050000000000118e+00 9.890790000000000859e+00 1.674099999999999966e+01 6.915350000000000108e-01 1.563509999999999955e+01 -4.629989999999999939e-01 5.190750000000000419e+00 1.640680000000000049e+01 -1.834780000000000078e+00 5.320439999999999614e+00 1.651940000000000097e+01 2.814550000000000107e-01 5.946979999999999933e+00 6.761169999999999680e-01 1.777549999999999963e+00 5.896989999999999732e+00 7.459919999999999884e-01 -3.150100000000000122e-01 6.929680000000000284e+00 1.430190000000000072e+00 -5.577109999999999568e-01 5.246080000000000076e+00 8.120449999999999946e+00 -1.872730000000000006e+00 5.119360000000000355e+00 8.093049999999999855e+00 -2.368679999999999897e+00 4.440640000000000143e+00 7.011980000000000324e+00 2.826759999999999828e-01 5.939560000000000173e+00 9.071389999999999176e+00 1.572519999999999918e+00 6.301289999999999836e+00 8.670400000000000773e+00 -2.778919999999999724e-01 6.619670000000000165e+00 9.984310000000000684e+00 1.481429999999999936e+01 4.372499999999999609e+00 1.572409999999999997e+01 -2.520259999999999945e+00 9.113530000000000797e+00 1.635279999999999845e+01 -3.975480000000000125e+00 8.962780000000000413e+00 1.655799999999999983e+01 -1.865709999999999980e+00 1.008079999999999998e+01 5.607710000000000194e-01 -5.722380000000000244e-01 9.895239999999999370e+00 4.147620000000000196e-01 -2.383319999999999883e+00 1.078769999999999918e+01 1.583890000000000020e+00 -2.597360000000000113e+00 9.004110000000000724e+00 8.423199999999999577e+00 -4.010080000000000311e+00 8.809879999999999711e+00 8.243209999999999482e+00 1.273470000000000013e+01 7.811320000000000263e+00 7.455250000000000377e+00 -1.940290000000000070e+00 9.783120000000000260e+00 9.160999999999999588e+00 -4.937420000000000142e-01 9.769159999999999400e+00 9.057380000000000209e+00 -2.238430000000000142e+00 1.058619999999999983e+01 1.022729999999999961e+01 -4.455289999999999750e+00 8.121919999999999362e+00 1.557799999999999940e+01 -5.125259999999999927e+00 1.273900000000000077e+01 2.857939999999999925e-01 -6.484280000000000044e+00 1.294449999999999967e+01 1.657280000000000086e+01 -4.275660000000000238e+00 1.352399999999999913e+01 1.016319999999999890e+00 -2.911010000000000097e+00 1.373039999999999949e+01 7.425389999999999491e-01 -4.606440000000000090e+00 1.445309999999999917e+01 1.861099999999999977e+00 -5.004609999999999559e+00 1.283370000000000033e+01 8.251580000000000581e+00 -6.421890000000000320e+00 1.271959999999999980e+01 8.039329999999999643e+00 1.045570000000000022e+01 1.160710000000000086e+01 7.316670000000000229e+00 -4.177170000000000272e+00 1.375140000000000029e+01 8.957670000000000243e+00 -2.905190000000000161e+00 1.377710000000000079e+01 8.530770000000000408e+00 -4.577530000000000321e+00 1.452940000000000076e+01 1.001769999999999960e+01 5.773369999999999891e+00 1.578929999999999945e+00 1.625049999999999883e+01 4.407199999999999562e+00 1.452199999999999935e+00 1.624930000000000163e+01 6.452770000000000117e+00 2.063940000000000108e+00 6.926160000000000094e-01 7.916559999999999597e+00 1.932290000000000063e+00 8.489700000000000024e-01 5.767759999999999998e+00 3.080420000000000158e+00 1.539220000000000033e+00 5.802780000000000271e+00 1.407059999999999977e+00 8.248829999999999885e+00 4.503730000000000011e+00 1.314519999999999911e+00 8.158329999999999416e+00 4.022219999999999906e+00 2.006419999999999870e-01 7.591809999999999725e+00 6.680410000000000181e+00 2.173529999999999962e+00 9.151500000000000412e+00 8.007809999999999206e+00 2.064960000000000129e+00 9.231930000000000192e+00 6.076410000000000089e+00 3.181000000000000050e+00 9.954980000000000828e+00 3.043569999999999887e+00 3.804279999999999884e-01 6.717329999999999579e+00 3.821720000000000006e+00 4.144809999999999883e-01 1.566600000000000037e+01 2.719520000000000159e+00 5.174379999999999535e-01 1.467719999999999914e+01 3.792629999999999946e+00 5.144269999999999676e+00 2.422000000000000108e-03 2.462209999999999788e+00 5.189689999999999692e+00 1.639610000000000056e+01 4.506109999999999616e+00 5.994279999999999831e+00 9.175299999999999567e-01 5.855039999999999800e+00 5.965419999999999945e+00 1.084279999999999911e+00 3.731230000000000047e+00 7.006990000000000052e+00 1.571860000000000035e+00 3.811110000000000220e+00 5.398509999999999920e+00 8.188919999999999533e+00 2.423470000000000013e+00 5.207569999999999588e+00 8.180030000000000356e+00 2.091260000000000119e+00 4.214419999999999611e+00 7.252220000000000333e+00 4.692730000000000068e+00 6.192610000000000170e+00 8.830989999999999895e+00 5.977350000000000385e+00 6.377500000000000391e+00 8.579560000000000741e+00 4.272850000000000037e+00 6.855590000000000295e+00 1.004119999999999990e+01 1.069770000000000110e+00 4.152870000000000061e+00 6.265740000000000087e+00 1.920460000000000056e+00 4.466910000000000380e+00 1.545459999999999923e+01 8.854119999999999768e-01 4.455280000000000129e+00 1.458619999999999983e+01 1.656779999999999919e+00 8.640090000000000714e+00 2.880159999999999942e-01 3.453530000000000211e-01 8.846180000000000376e+00 1.658759999999999835e+01 2.321619999999999795e+00 9.757799999999999585e+00 8.342920000000000336e-01 3.664320000000000022e+00 9.992630000000000123e+00 5.697619999999999907e-01 1.940530000000000088e+00 1.070730000000000004e+01 1.723559999999999981e+00 1.635650000000000048e+00 9.125239999999999796e+00 8.300390000000000157e+00 2.687510000000000177e-01 9.260680000000000689e+00 8.114029999999999632e+00 -2.709869999999999779e-01 8.036559999999999704e+00 7.398760000000000225e+00 2.349909999999999943e+00 1.000189999999999912e+01 9.106490000000000862e+00 3.820889999999999898e+00 9.973940000000000694e+00 9.001699999999999591e+00 2.045020000000000060e+00 1.083500000000000085e+01 1.003509999999999991e+01 -1.233270000000000088e+00 7.957550000000000345e+00 6.460709999999999731e+00 3.525799999999999768e-02 8.168749999999999289e+00 1.536459999999999937e+01 -1.017670000000000075e+00 8.110659999999999314e+00 1.448170000000000002e+01 -6.665720000000000534e-01 1.310069999999999979e+01 1.646770000000000067e+01 -2.043149999999999800e+00 1.316869999999999941e+01 1.640619999999999834e+01 1.282069999999999876e-01 1.360660000000000025e+01 7.098160000000000025e-01 1.333509999999999973e+00 1.365799999999999947e+01 3.386580000000000146e-01 -4.903140000000000276e-01 1.441619999999999990e+01 1.706120000000000081e+00 -7.236430000000000362e-01 1.293650000000000055e+01 8.406850000000000378e+00 -2.011540000000000106e+00 1.283939999999999948e+01 8.018039999999999168e+00 -2.490139999999999798e+00 1.175420000000000087e+01 7.484270000000000422e+00 1.453329999999999900e-01 1.353100000000000058e+01 9.283070000000000377e+00 1.579039999999999999e+00 1.343970000000000020e+01 9.120229999999999393e+00 -3.807519999999999794e-01 1.445240000000000080e+01 1.003589999999999982e+01 -3.420650000000000190e+00 1.180569999999999986e+01 6.421949999999999825e+00 -2.477559999999999985e+00 1.230589999999999939e+01 1.546460000000000079e+01 -3.429489999999999927e+00 1.189329999999999998e+01 1.455840000000000067e+01 1.005470000000000041e+01 1.763519999999999976e+00 1.647080000000000055e+01 8.710010000000000474e+00 1.477919999999999900e+00 1.643750000000000000e+01 1.068110000000000070e+01 2.267440000000000122e+00 8.672029999999999461e-01 1.203769999999999918e+01 2.250539999999999985e+00 7.529310000000000169e-01 1.039129999999999932e+01 3.280139999999999834e+00 1.809120000000000061e+00 1.004020000000000046e+01 1.205540000000000056e+00 8.660339999999999705e+00 8.753769999999999385e+00 1.375250000000000083e+00 8.246589999999999421e+00 8.444889999999999119e+00 5.791809999999999459e-01 7.259579999999999700e+00 1.085689999999999955e+01 2.211860000000000159e+00 9.098499999999999588e+00 1.219369999999999976e+01 2.259729999999999794e+00 8.848459999999999326e+00 1.044829999999999970e+01 3.160870000000000068e+00 9.929209999999999425e+00 7.297130000000000116e+00 7.255610000000000115e-01 6.501430000000000042e+00 8.145149999999999224e+00 4.461030000000000273e-01 1.566310000000000002e+01 7.132340000000000124e+00 6.061320000000000041e-01 1.478819999999999979e+01 8.025000000000000355e+00 5.256499999999999950e+00 2.902489999999999792e-01 6.668700000000000294e+00 5.203350000000000364e+00 1.010979999999999934e-01 8.894460000000000477e+00 5.937269999999999825e+00 1.030419999999999892e+00 1.027449999999999974e+01 5.922340000000000160e+00 8.510630000000000139e-01 8.389530000000000598e+00 6.999760000000000204e+00 1.854980000000000073e+00 8.137800000000000367e+00 5.060880000000000045e+00 8.334250000000000824e+00 6.784740000000000215e+00 5.352059999999999818e+00 8.123630000000000351e+00 6.094820000000000348e+00 4.300629999999999953e+00 7.375840000000000174e+00 8.976710000000000633e+00 5.964640000000000164e+00 9.018840000000000856e+00 1.037410000000000032e+01 5.771560000000000024e+00 8.856970000000000454e+00 8.616949999999999221e+00 6.993290000000000006e+00 9.938950000000000173e+00 5.133339999999999570e+00 4.272590000000000110e+00 6.419819999999999638e+00 6.181860000000000355e+00 4.425910000000000011e+00 1.576549999999999940e+01 5.126759999999999984e+00 4.407320000000000348e+00 1.490230000000000032e+01 5.701769999999999783e+00 9.161849999999999383e+00 5.220400000000000040e-02 4.364840000000000053e+00 9.080909999999999371e+00 1.647230000000000061e+01 6.584380000000000344e+00 9.828379999999999228e+00 8.570900000000000185e-01 7.978760000000000296e+00 9.793139999999999290e+00 4.563189999999999746e-01 6.174559999999999604e+00 1.062759999999999927e+01 1.923869999999999969e+00 5.909849999999999604e+00 9.526870000000000616e+00 8.008960000000000079e+00 4.618839999999999613e+00 9.254419999999999646e+00 8.091639999999999944e+00 4.011989999999999945e+00 8.171689999999999898e+00 7.454570000000000363e+00 6.769650000000000389e+00 9.926220000000000709e+00 9.101020000000000110e+00 8.128740000000000521e+00 9.693669999999999121e+00 8.934570000000000789e+00 6.403590000000000337e+00 1.061340000000000039e+01 1.020379999999999932e+01 3.125910000000000188e+00 8.247510000000000119e+00 6.382830000000000226e+00 3.948109999999999786e+00 7.968289999999999651e+00 1.573129999999999917e+01 3.086549999999999905e+00 7.984799999999999898e+00 1.465779999999999994e+01 3.576880000000000059e+00 1.273859999999999992e+01 1.660589999999999833e+01 2.174580000000000179e+00 1.276130000000000031e+01 1.629990000000000094e+01 4.176919999999999966e+00 1.361219999999999963e+01 9.040280000000000538e-01 5.560529999999999973e+00 1.348399999999999999e+01 6.392529999999999601e-01 3.651850000000000041e+00 1.461250000000000071e+01 1.605390000000000095e+00 3.711329999999999796e+00 1.269679999999999964e+01 8.301930000000000476e+00 2.383649999999999824e+00 1.262950000000000017e+01 8.354440000000000310e+00 1.922420000000000018e+00 1.212509999999999977e+01 6.997370000000000090e+00 4.414939999999999642e+00 1.352510000000000012e+01 9.146800000000000708e+00 5.648799999999999599e+00 1.365390000000000015e+01 8.867129999999999512e+00 3.768769999999999953e+00 1.432210000000000072e+01 9.911390000000000811e+00 8.535709999999999686e-01 1.185790000000000077e+01 6.205219999999999736e+00 1.753139999999999921e+00 1.174130000000000074e+01 1.559950000000000081e+01 8.454000000000000403e-01 1.194919999999999938e+01 1.462320000000000064e+01 1.430460000000000065e+01 1.816869999999999985e+00 2.446170000000000011e-01 1.299869999999999948e+01 1.508569999999999967e+00 1.812199999999999922e-01 1.527769999999999939e+01 2.564290000000000180e+00 9.609900000000000109e-01 1.489460000000000051e+01 3.403620000000000090e+00 1.944809999999999928e+00 1.441789999999999949e+01 1.296869999999999967e+00 8.514120000000000132e+00 1.306869999999999976e+01 1.343069999999999986e+00 8.173500000000000654e+00 1.249450000000000038e+01 4.420370000000000132e-01 7.285949999999999704e+00 1.507000000000000028e+01 2.298140000000000072e+00 9.092079999999999274e+00 1.465980000000000061e+01 3.117550000000000043e+00 1.007840000000000025e+01 1.144899999999999984e+01 6.021579999999999711e-01 6.251549999999999940e+00 1.266629999999999967e+01 5.970130000000000159e-01 1.568839999999999968e+01 1.163739999999999952e+01 7.656399999999999872e-01 1.479870000000000019e+01 1.245809999999999995e+01 5.200520000000000032e+00 9.262499999999999900e-02 1.114710000000000001e+01 5.233380000000000365e+00 6.168300000000000172e-02 1.331520000000000081e+01 6.065269999999999939e+00 6.676879999999999482e-01 1.274910000000000032e+01 6.819899999999999629e+00 1.716059999999999919e+00 1.237790000000000035e+01 5.320229999999999571e+00 8.046440000000000481e+00 1.104069999999999929e+01 5.314960000000000129e+00 7.745949999999999669e+00 1.071080000000000076e+01 4.260329999999999728e+00 7.012400000000000411e+00 1.321149999999999913e+01 6.000479999999999592e+00 9.080859999999999488e+00 1.274619999999999997e+01 6.859899999999999665e+00 1.011839999999999939e+01 9.767129999999999868e+00 4.258309999999999818e+00 6.045069999999999943e+00 1.047109999999999985e+01 4.538269999999999804e+00 1.559720000000000084e+01 9.401199999999999335e+00 4.369959999999999845e+00 1.474360000000000070e+01 1.025200000000000067e+01 8.910629999999999384e+00 5.959500000000000214e-02 8.832670000000000243e+00 8.904040000000000177e+00 1.649020000000000152e+01 1.112579999999999991e+01 9.576389999999999958e+00 8.132179999999999964e-01 1.061739999999999995e+01 1.079379999999999917e+01 1.650539999999999896e+00 1.031460000000000043e+01 8.839700000000000557e+00 8.347300000000000608e+00 8.891049999999999898e+00 8.822459999999999525e+00 8.234859999999999403e+00 8.325329999999999231e+00 7.807579999999999742e+00 7.490380000000000038e+00 1.110689999999999955e+01 9.686080000000000467e+00 9.111539999999999750e+00 1.058029999999999937e+01 1.062509999999999977e+01 1.006670000000000087e+01 7.359049999999999869e+00 7.864499999999999602e+00 6.244119999999999671e+00 8.507110000000000838e+00 8.092330000000000467e+00 1.550029999999999930e+01 7.323199999999999932e+00 8.130290000000000461e+00 1.468060000000000009e+01 7.644020000000000259e+00 1.290840000000000032e+01 1.658409999999999940e+01 6.208639999999999937e+00 1.281279999999999930e+01 1.637849999999999895e+01 8.448119999999999408e+00 1.351769999999999960e+01 8.572030000000000483e-01 8.081379999999999342e+00 1.436009999999999920e+01 1.797279999999999989e+00 7.976180000000000270e+00 1.261059999999999981e+01 8.578340000000000742e+00 6.606150000000000411e+00 1.278999999999999915e+01 8.218920000000000670e+00 6.213610000000000078e+00 1.226929999999999943e+01 7.072720000000000340e+00 8.771860000000000213e+00 1.355310000000000059e+01 9.045109999999999317e+00 8.596099999999999852e+00 1.439659999999999940e+01 1.005920000000000059e+01 5.080199999999999605e+00 1.231070000000000064e+01 6.290720000000000312e+00 5.728180000000000049e+00 1.172180000000000000e+01 1.570640000000000036e+01 4.788529999999999731e+00 1.199390000000000001e+01 1.471139999999999937e+01 1.615129999999999910e+01 7.916360000000000063e-01 6.405949999999999811e+00 1.596410000000000018e+01 6.625820000000000043e-01 1.451099999999999923e+01 1.402870000000000061e+01 4.536959999999999660e+00 6.147710000000000008e+00 1.385149999999999970e+01 4.485299999999999621e+00 1.482579999999999920e+01 1.184769999999999968e+01 7.884769999999999612e+00 6.451010000000000133e+00 1.189259999999999984e+01 8.021110000000000184e+00 1.464279999999999937e+01 9.542619999999999436e+00 1.175939999999999941e+01 6.368350000000000399e+00 9.454299999999999926e+00 1.208089999999999975e+01 1.463599999999999923e+01 2.328689999999999927e+00 6.315600000000000103e-01 2.860879999999999868e+00 1.205789999999999917e+00 7.743830000000000435e-01 3.617430000000000145e+00 2.694670000000000121e-01 1.815460000000000074e+00 3.193760000000000154e+00 7.093530000000000113e-01 6.092399999999999899e-02 4.663219999999999921e+00 2.155699999999999950e+00 4.725960000000000161e-01 1.094940000000000069e+01 1.035309999999999953e+00 7.685539999999999594e-01 1.162250000000000050e+01 4.007600000000000051e-01 2.011829999999999785e+00 1.136999999999999922e+01 -8.308970000000000411e+00 1.499890000000000079e+01 1.252979999999999983e+01 2.568639999999999812e-01 4.343259999999999899e+00 2.814369999999999816e+00 6.377350000000000518e-01 2.948840000000000128e+00 2.520020000000000149e+00 -8.383890000000000509e-01 4.683259999999999756e+00 3.580000000000000071e+00 -1.446579999999999977e+00 5.917379999999999640e+00 3.598529999999999784e+00 -1.194620000000000015e+00 3.757680000000000131e+00 4.523690000000000211e+00 -1.009580000000000061e-01 4.296759999999999913e+00 1.114000000000000057e+01 7.663069999999999604e-01 3.182980000000000143e+00 1.091660000000000075e+01 -1.049379999999999979e+00 4.810290000000000177e+00 1.215840000000000032e+01 -1.741389999999999993e+00 5.868900000000000006e+00 1.177960000000000029e+01 -1.568130000000000024e+00 3.980239999999999778e+00 1.311630000000000074e+01 -1.910690000000000000e+00 8.073100000000000165e+00 2.694119999999999848e+00 -1.198369999999999935e+00 6.802990000000000315e+00 2.529560000000000031e+00 -2.999800000000000022e+00 8.252399999999999736e+00 3.532239999999999824e+00 -3.473549999999999915e+00 9.611359999999999459e+00 3.532160000000000188e+00 -3.346929999999999961e+00 7.571579999999999977e+00 4.582790000000000141e+00 -1.999970000000000026e+00 8.129839999999999733e+00 1.106129999999999924e+01 -1.516860000000000097e+00 6.804630000000000400e+00 1.073659999999999926e+01 -3.014879999999999782e+00 8.432000000000000384e+00 1.200420000000000087e+01 -3.667510000000000048e+00 9.631930000000000547e+00 1.185270000000000046e+01 -3.721620000000000150e+00 7.511840000000000295e+00 1.271690000000000076e+01 -4.253700000000000259e+00 1.171100000000000030e+01 2.992109999999999825e+00 -3.463589999999999947e+00 1.059950000000000081e+01 2.507340000000000124e+00 -5.252410000000000245e+00 1.197749999999999915e+01 3.732769999999999921e+00 -5.774540000000000006e+00 1.328829999999999956e+01 3.749000000000000110e+00 -5.845889999999999809e+00 1.120880000000000010e+01 4.629850000000000243e+00 -4.122939999999999827e+00 1.180429999999999957e+01 1.113729999999999976e+01 -3.360809999999999853e+00 1.071879999999999988e+01 1.106099999999999994e+01 -5.269820000000000171e+00 1.220350000000000001e+01 1.183189999999999920e+01 -5.902599999999999625e+00 1.327979999999999983e+01 1.159280000000000044e+01 -5.610909999999999620e+00 1.134699999999999953e+01 1.290590000000000082e+01 -5.625910000000000188e+00 1.439320000000000022e+01 2.875519999999999854e+00 -5.764269999999999783e+00 1.436880000000000024e+01 1.079499999999999993e+01 6.659629999999999939e+00 4.240459999999999785e-01 3.070949999999999847e+00 5.571959999999999802e+00 8.057659999999999823e-01 3.855620000000000047e+00 4.673449999999999882e+00 2.007060000000000066e+00 3.816450000000000120e+00 -3.695870000000000211e+00 1.479780000000000051e+01 4.561370000000000147e+00 6.496480000000000032e+00 7.304490000000000149e-01 1.114520000000000088e+01 5.375149999999999650e+00 8.656230000000000313e-01 1.180180000000000007e+01 4.723690000000000389e+00 1.984050000000000091e+00 1.161749999999999972e+01 4.942140000000000200e+00 8.324099999999999555e-02 1.280339999999999989e+01 4.348440000000000083e+00 4.286290000000000155e+00 2.964080000000000048e+00 4.855380000000000251e+00 2.821740000000000137e+00 2.656470000000000109e+00 3.295879999999999921e+00 4.556149999999999700e+00 3.842239999999999878e+00 2.629350000000000076e+00 5.677599999999999980e+00 3.519019999999999815e+00 2.769629999999999814e+00 3.447940000000000005e+00 4.612379999999999924e+00 4.308410000000000295e+00 4.107960000000000278e+00 1.102030000000000065e+01 5.123780000000000001e+00 3.004150000000000098e+00 1.085030000000000072e+01 3.290630000000000166e+00 4.695030000000000037e+00 1.192900000000000027e+01 2.812320000000000153e+00 5.846870000000000012e+00 1.197010000000000041e+01 2.716239999999999988e+00 3.874909999999999854e+00 1.301169999999999938e+01 2.268899999999999917e+00 7.914240000000000386e+00 2.850589999999999957e+00 2.732699999999999907e+00 6.664629999999999832e+00 2.537710000000000132e+00 1.154779999999999918e+00 8.290570000000000661e+00 3.622370000000000090e+00 3.883750000000000258e-01 9.440950000000000841e+00 3.254350000000000076e+00 5.567450000000000454e-01 7.556219999999999715e+00 4.785330000000000084e+00 2.641859999999999875e+00 8.084369999999999834e+00 1.114840000000000053e+01 3.187759999999999927e+00 6.852520000000000167e+00 1.090840000000000032e+01 1.425850000000000062e+00 8.418870000000000076e+00 1.173820000000000086e+01 8.240480000000000027e-01 9.631479999999999819e+00 1.159190000000000076e+01 8.066269999999999829e-01 7.486900000000000333e+00 1.251559999999999917e+01 -6.086600000000000343e-02 1.162229999999999919e+01 2.607779999999999987e+00 7.433480000000000087e-01 1.054330000000000034e+01 2.433850000000000069e+00 -1.075520000000000032e+00 1.190900000000000070e+01 3.533240000000000158e+00 -1.742739999999999956e+00 1.308089999999999975e+01 3.402969999999999828e+00 -1.387839999999999963e+00 1.112770000000000081e+01 4.579500000000000348e+00 1.658229999999999982e-01 1.193159999999999954e+01 1.119589999999999996e+01 9.200059999999999905e-01 1.088490000000000002e+01 1.097719999999999985e+01 -1.061930000000000041e+00 1.221749999999999936e+01 1.199290000000000056e+01 -1.970960000000000045e+00 1.329429999999999978e+01 1.171560000000000024e+01 -1.673100000000000032e+00 1.141380000000000017e+01 1.293849999999999945e+01 -1.502340000000000009e+00 1.426050000000000040e+01 2.554520000000000124e+00 -1.563379999999999992e+00 1.449399999999999977e+01 1.091639999999999944e+01 1.036930000000000085e+01 4.328319999999999945e-01 2.656330000000000080e+00 9.606519999999999726e+00 8.922670000000000323e-01 3.641280000000000072e+00 9.081440000000000623e+00 2.223570000000000046e+00 3.364759999999999973e+00 9.019420000000000215e+00 5.248599999999999793e-02 4.450459999999999638e+00 1.094780000000000086e+01 6.517880000000000340e-01 1.113599999999999923e+01 9.898699999999999832e+00 1.071020000000000083e+00 1.187540000000000084e+01 9.184329999999999217e+00 2.209900000000000198e+00 1.167389999999999972e+01 9.202970000000000539e+00 2.358190000000000008e-01 1.271129999999999960e+01 8.569340000000000401e+00 4.315570000000000128e+00 2.909949999999999815e+00 9.448140000000000427e+00 3.315630000000000077e+00 2.629779999999999784e+00 7.426269999999999705e+00 4.448690000000000033e+00 3.599310000000000009e+00 6.830339999999999634e+00 5.799629999999999619e+00 3.477050000000000196e+00 6.999469999999999636e+00 3.657029999999999781e+00 4.603729999999999656e+00 8.613690000000000069e+00 4.242549999999999599e+00 1.095870000000000033e+01 9.465630000000000877e+00 3.297210000000000196e+00 1.084830000000000005e+01 7.849219999999999864e+00 4.748780000000000001e+00 1.204920000000000080e+01 7.399490000000000123e+00 6.034539999999999793e+00 1.188269999999999982e+01 7.007769999999999833e+00 3.772609999999999797e+00 1.294229999999999947e+01 6.407049999999999912e+00 8.082979999999999166e+00 2.770890000000000075e+00 7.112289999999999779e+00 6.824860000000000149e+00 2.555299999999999905e+00 5.350559999999999761e+00 8.315129999999999910e+00 3.636890000000000178e+00 4.700980000000000381e+00 9.598300000000000054e+00 3.659920000000000062e+00 4.908070000000000377e+00 7.416039999999999743e+00 4.668750000000000178e+00 6.829469999999999708e+00 8.067740000000000578e+00 1.106170000000000009e+01 7.649029999999999774e+00 6.896989999999999732e+00 1.093430000000000035e+01 5.740420000000000300e+00 8.309820000000000206e+00 1.185180000000000078e+01 5.025929999999999787e+00 9.701719999999999899e+00 1.187040000000000006e+01 5.250939999999999941e+00 7.268550000000000288e+00 1.263760000000000083e+01 4.412910000000000110e+00 1.182029999999999959e+01 2.970979999999999954e+00 5.193710000000000271e+00 1.070379999999999932e+01 2.826299999999999812e+00 3.221890000000000143e+00 1.214419999999999966e+01 3.610459999999999781e+00 2.877159999999999940e+00 1.344350000000000023e+01 3.420869999999999855e+00 2.722910000000000164e+00 1.124450000000000038e+01 4.485459999999999781e+00 4.355290000000000106e+00 1.189750000000000085e+01 1.091479999999999961e+01 5.233290000000000219e+00 1.072439999999999927e+01 1.094369999999999976e+01 3.284469999999999779e+00 1.211509999999999998e+01 1.176030000000000086e+01 2.591920000000000002e+00 1.329870000000000019e+01 1.176459999999999972e+01 2.691920000000000091e+00 1.126089999999999947e+01 1.280959999999999965e+01 2.648400000000000087e+00 1.442050000000000054e+01 2.576940000000000008e+00 2.927859999999999907e+00 1.431559999999999988e+01 1.105499999999999972e+01 1.496519999999999939e+01 2.406850000000000100e-01 3.101750000000000007e+00 1.389540000000000042e+01 8.565230000000000343e-01 3.711240000000000094e+00 1.347789999999999999e+01 2.020379999999999843e+00 3.018559999999999910e+00 1.329279999999999973e+01 6.001849999999999685e-01 4.949749999999999872e+00 1.524740000000000073e+01 3.803480000000000194e-01 1.079979999999999940e+01 1.402330000000000076e+01 7.512879999999999558e-01 1.141230000000000011e+01 1.335089999999999932e+01 1.934800000000000075e+00 1.160120000000000040e+01 4.970799999999999663e+00 1.473049999999999926e+01 1.239020000000000010e+01 1.311320000000000086e+01 4.417410000000000281e+00 2.760060000000000180e+00 1.374479999999999968e+01 3.252219999999999889e+00 2.613770000000000149e+00 1.210100000000000087e+01 4.619299999999999962e+00 3.622939999999999827e+00 1.134980000000000011e+01 5.615639999999999965e+00 3.337489999999999846e+00 1.146579999999999977e+01 3.882390000000000008e+00 4.472059999999999924e+00 1.303739999999999988e+01 4.477149999999999963e+00 1.125740000000000052e+01 1.355300000000000082e+01 3.120229999999999837e+00 1.100360000000000049e+01 1.189250000000000007e+01 4.771469999999999878e+00 1.194960000000000022e+01 1.121560000000000024e+01 5.932760000000000034e+00 1.175239999999999974e+01 1.143570000000000064e+01 3.838379999999999903e+00 1.286950000000000038e+01 1.105790000000000006e+01 7.872819999999999929e+00 2.841470000000000162e+00 1.164450000000000074e+01 6.690150000000000041e+00 2.501729999999999787e+00 9.939339999999999620e+00 8.254179999999999851e+00 3.475319999999999965e+00 9.302039999999999864e+00 9.487669999999999604e+00 3.218560000000000088e+00 9.651740000000000208e+00 7.658070000000000377e+00 4.581030000000000157e+00 1.104780000000000051e+01 8.040309999999999846e+00 1.104739999999999966e+01 1.164109999999999978e+01 6.905389999999999695e+00 1.092919999999999980e+01 9.959229999999999805e+00 8.359130000000000393e+00 1.186320000000000086e+01 9.257949999999999235e+00 9.417590000000000572e+00 1.159820000000000029e+01 9.500629999999999242e+00 7.556840000000000224e+00 1.278960000000000008e+01 8.789189999999999614e+00 1.175970000000000049e+01 2.877780000000000005e+00 9.525249999999999773e+00 1.057010000000000005e+01 2.568169999999999842e+00 7.702539999999999942e+00 1.198220000000000063e+01 3.850649999999999906e+00 6.823439999999999728e+00 1.302590000000000003e+01 3.446720000000000006e+00 6.893150000000000333e+00 1.112710000000000043e+01 4.575330000000000119e+00 8.921469999999999345e+00 1.171700000000000053e+01 1.130899999999999928e+01 9.403829999999999245e+00 1.061950000000000038e+01 1.070229999999999926e+01 7.719210000000000349e+00 1.199329999999999963e+01 1.196490000000000009e+01 7.118739999999999846e+00 1.338020000000000032e+01 1.188809999999999967e+01 7.163009999999999877e+00 1.126789999999999914e+01 1.289429999999999943e+01 7.037079999999999558e+00 1.419679999999999964e+01 2.882050000000000001e+00 7.467100000000000293e+00 1.437850000000000072e+01 1.098300000000000054e+01 5.371320000000000539e-01 2.989240000000000119e+00 6.023590000000000444e+00 -5.622859999999999525e-01 2.815269999999999939e+00 5.278389999999999915e+00 -5.432399999999999729e-02 3.536000000000000032e+00 1.468790000000000084e+01 -9.688560000000000505e-01 2.944920000000000204e+00 1.376469999999999949e+01 -1.591939999999999911e+00 6.695899999999999963e+00 6.100990000000000357e+00 -2.651590000000000114e+00 6.544950000000000045e+00 5.173709999999999809e+00 -1.767789999999999973e+00 6.883919999999999817e+00 1.449479999999999968e+01 -3.100769999999999804e+00 6.785420000000000229e+00 1.381780000000000008e+01 -4.141849999999999810e+00 1.061529999999999951e+01 6.102820000000000356e+00 -5.205569999999999808e+00 1.024740000000000073e+01 5.465559999999999974e+00 -4.064969999999999750e+00 1.063180000000000014e+01 1.461120000000000019e+01 -5.129920000000000258e+00 1.044710000000000072e+01 1.371979999999999933e+01 -6.266569999999999752e+00 1.431329999999999991e+01 6.188819999999999766e+00 -7.318780000000000285e+00 1.402420000000000044e+01 5.396300000000000097e+00 2.884139999999999926e+00 1.500229999999999952e+00 5.941749999999999865e+00 4.677410000000000068e+00 2.978829999999999867e