-1.410962733941918123e+05
-1.411353806277631084e+05
-1.411649900308301440e+05
-1.411451076194040943e+05
-1.411114982180618390e+05
-1.410834915993625182e+05
-1.411640787371495971e+05
-1.411297956888107001e+05
-1.411001589334706950e+05
-1.411636595081290288e+05
-1.411427948990105360e+05
-1.410898168095165165e+05
-1.410944623024160392e+05
-1.411644160758087819e+05
-1.411811754337628081e+05
-1.411643065063904505e+05
-1.411635529732459399e+05
-1.411635232008581806e+05
-1.411077641480175953e+05
-1.411643155869279290e+05
-1.411644908442519954e+05
-1.411645311142749852e+05
-1.411614963196155149e+05
-1.411629880512347736e+05
-1.411212848929483735e+05
-1.411635103084202856e+05
-1.411131485169885855e+05
-1.411647416931203334e+05
-1.410897469972358085e+05
-1.411498295986885205e+05
-1.411637703450933332e+05
-1.411530477111087239e+05
-1.411626643646787561e+05
-1.411631753660595568e+05
-1.411651723033036105e+05
-1.411647819220621896e+05
