-2.780977400014174039e-01 -2.204317479817786030e+00 -1.049159814733405582e+00 1.077348877903252650e-01 8.142514692053541836e-01 -7.933242304045139137e-02 3.516096992242235153e+00 8.234477917528205682e-01 -3.820212241503974648e-01 1.010380376766809141e+00 -2.134877119897755193e+00 -1.386376477271005436e+00 -1.833985520046106821e+00 1.254204280353905965e+00 -1.685683249003033790e+00 1.740938831609719850e+00 -6.864038681630136862e-01 -7.660479089323716240e-01 -1.147951890768923011e+00 -8.133562110105915233e-01 -6.335733502585111365e-01 -1.794095365422022081e-01 2.062023877359321578e+00 6.018361644327975268e-01 9.730597828545160116e-03 5.622180325456621608e-01 4.003727315913486740e-01 4.182285817238954984e+00 5.914902501448305649e+00 5.911031962429362352e+00 -6.565836970128174910e-01 -7.875320487239806377e-01 -1.098420612713701505e+00 -7.133346333417150964e-01 2.028092511914392659e+00 2.463293409807457035e+00 1.969567514257561935e+00 4.347437557131996755e-01 -1.192582645793650586e+00 -2.430374030650462647e+00 -1.741819691625589028e+00 -1.945143060647656741e+00 2.048596547099902576e+00 -1.156406192882705852e+00 -1.385937332814757728e+00 -1.252408107536957749e+00 2.695282524564877602e-01 1.079411417029728204e+00 1.616924745697739141e+00 -7.005192256852651456e-01 1.255349964017278275e+00 -6.298550205592979845e-01 1.880834108841088925e+00 -4.733313893681094231e-01 3.673427949892801858e-01 1.497072761927292106e+00 1.850677123148922520e+00 -3.098538491479623236e+00 -3.553038605517226944e+00 -3.958808597310891741e+00 -1.444564146165191465e-01 2.009171762186479082e+00 2.602388559668894707e+00 -1.883020060929507133e+00 -1.907488737517442301e+00 -2.367910616845619654e+00 2.740955604897350018e+00 -4.627615833983506066e-01 -1.354647518976087872e-01 -5.142454087777156957e+00 -2.761354739065208230e-01 -5.304283962111228101e-01 -4.276577948149619668e-01 -1.099676853822148193e+00 1.938672621897110648e+00 1.841997078158918777e+00 -9.559048669237389939e-01 1.570931305884888829e+00 -1.543664240384892139e+00 2.639443301492334637e+00 2.707366710421813538e-01 2.004978806804458724e+00 -3.477859542866839626e-01 3.326814418744578283e+00 -1.702939466406739044e-01 -3.374007535391650991e-01 -4.099441781210545699e+00 1.541602729699766305e+00 -3.812078813091243745e+00 4.127088855789192712e-01 -3.608961646559756264e+00 3.496471245969220210e+00 4.305831448116226312e+00 2.032152284141648835e+00 -1.214918335022667495e-01 1.653967660445660126e+00 -3.504046230729158218e+00 1.621595926307288327e+00 2.468182619983106285e+00 2.155139985586801643e+00 -6.020500802334990409e-01 -1.511874089829678081e+00 -1.946654869431460488e+00 -3.456277701147024928e+00 -7.394688706952081692e-01 5.852257053524597019e+00 -9.682219947463431842e-01 5.331439955945475179e-02 -2.438733716160089049e+00 7.516610428938451660e-01 1.059489993868724778e+00 -5.984370629284774701e+00 -3.847289559574983198e+00 -3.639049212460829352e+00 -7.955934862422442411e-01 1.319688226402307762e+00 6.832887193152978877e-01 3.254079446961339439e+00 1.745769934849120242e+00 1.009008950227215484e+00 4.928119197225709236e+00 2.853699002059869372e+00 3.963533256870616306e+00 -1.852068604294831999e+00 2.032038127151850837e+00 5.066914556433759209e-01 -1.585443127547382591e+00 1.499530736752660687e+00 -3.810066667590895212e-02 1.107122254972045389e-01 -1.458723726665472675e+00 1.605061674730950738e+00 -9.446547470012682801e-01 2.251155269978597634e-02 -9.803735435116737174e-01 3.508625365837925170e-01 -2.350481107074519294e+00 -6.026836001048072600e-01 1.098027748118182378e+00 -6.524740453801094464e-01 -2.273289898923782193e+00 1.902577415852778620e+00 -1.001233933624794847e+00 -1.509622831715564439e+00 -3.085414551418315554e+00 1.762587007796577954e+00 4.057482402591213067e+00 -1.836350420929343308e+00 -7.952201620323661180e-01 9.148242914375769030e-02 3.883321516476319957e+00 -1.473911234294605466e+00 4.266591782645717812e-02 1.415643346975156147e+00 4.601873947004858079e-01 3.067629715160953285e-01 -1.568855397020869402e+00 -1.398039516395310766e+00 -1.102919529397205389e+00 1.738970394866725888e+00 3.712776115925685988e-02 1.488889454109110000e+00 -1.314795930902610266e+00 -6.241857376200330432e-01 9.359973277209540088e-01 1.061849238324538369e+00 -7.959976636926081595e-01 1.525002657877058576e+00 -1.616513883378603245e+00 7.666989123066219047e-01 -7.075265108202641318e-02 1.510009011442311699e+00 2.066376755371192253e+00 1.447605761456416396e+00 -2.965948233153941516e+00 1.370858325747999817e+00 -1.012636777087670081e+00 2.165028449162499369e-01 -3.902461324211683014e+00 1.529019235567634638e+00 5.070833946416803961e+00 1.361531905369818496e+00 1.298626261784679548e+00 -1.803368306850027913e+00 2.287531754732025746e+00 2.711974641888367898e+00 -5.766984867469955311e-01 -5.765910146259699554e-01 -1.175973832219471937e+00 -3.356578539841224895e+00 9.078864260936709840e-01 3.477823547419605643e-01 -1.680668568982742195e-01 -1.984213033295494366e-01 -2.598994703215456781e+00 2.342341508013691787e+00 -1.299585283343112962e+00 -1.875136029544036909e+00 -1.069357888617431529e+00 2.476358214491167220e-01 -3.348106754224501103e+00 -2.467038993202432806e+00 -3.090386551122601411e+00 -4.016554550645455635e+00 2.313200622374857574e+00 4.233443061067777791e+00 -2.900945083436443084e-01 2.674795972882308970e+00 4.869602941320348433e-01 5.485983837538824792e-01 5.473292871285667660e-01 1.274846640900927142e+00 2.035357421607448369e+00 -3.185405790067381115e+00 6.882242093516754977e-01 3.211632072921656866e-01 1.642869749842919447e+00 -1.011995029685565761e+00 -2.467263707637303849e+00 2.222547631179493166e+00 -2.935124303246607003e+00 5.843408344153271372e-01 -5.496612778886181827e-01 -7.017492415392988514e-01 2.195161780703626109e-01 -1.468917637321979497e-01 2.126463955437953413e+00 -1.752490799068276317e+00 -3.119802544822433688e-01 -6.943064114927753883e-01 1.655022841270274325e+00 -3.306423512107516061e+00 6.095541025403192759e-01 3.150061860428877925e+00 3.011264958558803162e+00 -2.297573970289477074e-01 2.468516349201027582e-02 -8.689614636761165967e-01 -8.277698165242055595e-01 -1.179272557848078384e-01 3.416396802495085705e+00 4.685044513161741975e+00 2.111834891461613850e+00 -1.790912339445237256e-01 -1.867307533991441115e+00 -4.978679430851131182e-01 1.360782171626013885e-02 2.194583282444517724e+00 -1.803618732318637563e-01 -9.173655700122568257e-01 2.299235417289636985e+00 8.418543208059713345e-01 -2.078227999262461267e+00 1.141448027674517363e+00 -2.726153762774289557e+00 1.994624973518101196e+00 -4.181565394073611941e-01 1.936534492331445090e-01 -1.344968857435693943e+00 -1.196277835562499448e+00 -1.030085313023737070e+00 -2.471901463902994145e+00 -1.241210438123312998e-01 6.106324232952978770e-01 4.240099133481913807e-01 1.729727792458530811e+00 5.598901555510089612e-01 -2.999094383628506666e-01 -5.022849444151271214e+00 -1.460316782315889350e+00 2.098347397383248492e+00 9.596206255195781631e-01 2.409982609792725494e+00 3.534628991140027932e+00 -3.519158662139775462e+00 -2.584220629008833647e+00 -4.777536871710734712e-01 -5.461573782107812525e-01 -1.024389290609384551e+00 -3.196895022603616798e+00 3.597021956712428636e+00 2.801063373791102151e+00 3.194086349278059345e+00 7.352790006372372789e-02 1.489534286835263011e+00 -4.067876345090202794e-01 4.461429996313516222e-01 9.202904572103103309e-01 -1.701069760033299794e+00 -1.334077149323533273e+00 1.261427023951630533e+00 -3.568777357709706610e+00 -2.308495503200773680e+00 -1.732333862838231431e+00 -8.453427938635652561e-01 -1.342812215925736741e+00 5.350090739819137742e-01 -4.203782812547433245e+00 2.052473770987618185e+00 2.888327136519101668e+00 6.865479527960823170e+00 3.469241204357806918e-01 3.896044364411312133e-02 1.834218462011774742e+00 -9.491449219333011333e-01 -8.405317452304802428e-01 1.756158220920688073e+00 -1.738540506382624029e+00 -1.043121835570335332e+00 1.582102750044120723e-02 3.382724604270237467e+00 2.915081009785684962e+00 -1.556504330633730948e+00 -3.232580394770162791e+00 -3.658099031578109006e+00 1.420411201071561269e+00 -1.435165734892543288e+00 -2.676456391441119465e+00 -2.137544896758427626e+00 -8.471055423366538051e-01 3.143523544549262638e-01 -3.078735853294490621e+00 2.425215883061912603e+00 4.616438733396852179e+00 -8.797621547288441146e-01 -1.780434064755586299e+00 5.780503729009480729e-01 -1.000459517288601496e+00 -2.598914999010868421e+00 6.465090855528557445e-02 -6.853250331873602663e-01 7.404494895219817518e-01 1.543520258595958428e+00 -2.271766777285133543e+00 -1.781463020325787738e+00 -1.016527370712929201e+00 -1.462702766246790853e+00 -1.008778065144246838e+00 5.159880512224208626e-01 2.958585621532681120e+00 2.194483523633613320e+00 1.125109694175264297e+00 1.017104840530688392e+00 8.204905086522568808e-03 8.613211728904839326e-01 2.997549150500842252e+00 -2.818844610503740689e-01 -4.413060342762584298e+00 1.598414858288960794e+00 6.810713997657186214e-01 -1.292727122203795265e+00 1.268650795990704960e+00 2.815075372957726030e-01 3.555869390331798829e+00 -1.908378339284782843e+00 -6.091000456845032662e-01 -1.432868711138375994e+00 2.329023706757998302e-01 -1.391546966155750020e+00 3.302263466848681106e-01 2.686178761738868381e+00 -9.990078723237448832e-01 -1.080261423805111809e+00 -8.850149189215507362e-02 2.647952110997642272e+00 5.603323853313053604e-01 -4.155278433179713793e-01 -2.667675559198862345e+00 -1.056963113472938032e+00 1.594251213485402774e+00 2.046220333361822075e+00 4.548292152694526358e-01 -4.500150813123190291e-02 -1.154438784581061528e+00 -4.012561112885244974e+00 -3.827329055642698097e-01 -1.578161762792734901e+00 -1.252508380568536639e+00 -7.307399747411019719e-01 9.724792277127083384e-01 1.223777843028163614e+00 -1.141914425826527635e-01 2.550758232819289262e+00 1.382635521862102701e+00 2.130056301071850053e-02 6.206777241767981179e-01 1.182357367675983317e+00 -1.046689498611842906e+00 -1.449706352912824237e+00 1.892162390306123265e-01 -1.205533293487563329e+00 1.836342707619221803e+00 5.879573484209371648e-01 -1.077089710683171830e+00 -2.364411859374530689e+00 -2.103042232143836898e+00 2.007776167275171275e+00 1.201156247103978281e+00 1.077325223752213512e+00 1.748974558094245291e+00 -5.101773575975960817e-01 1.039959892641216105e-01 -3.921861327608476167e+00 1.577174973317864382e+00 6.923220339088639319e-01 -8.572290047607179497e-01 -1.947421058236857849e+00 2.968056023699795487e-01 -1.229650757354634749e-01 -2.537837409924512677e+00 2.167866947287192536e-01 1.188079101124073889e+00 -4.412188224498186928e-01 1.183538532565914458e+00 -1.267688689108222633e+00 -3.286420327859225221e-01 -2.132755445393682336e+00 1.593157466110181053e+00 -8.924505498786273749e-01 -1.544652058301112518e-01 1.130867937291263337e+00 -3.863751306036179722e-02 5.118053802538965469e-01 6.143116722232289106e-01 6.578630780516284138e-02 -2.370289915907749512e-01 -1.025816252981852639e+00 8.800012673426090004e-02 1.623332963746638713e+00 1.440391759610162525e+00 -2.481983788673077229e-01 -1.620455899071338468e+00 3.078291566631494725e+00 2.635987738557926119e-01 2.095668307667732044e+00 -3.385145040986348164e+00 2.246666123487914279e-01 1.438958112368922571e+00 8.006256497654774540e-01 6.301805222464230694e-01 -1.455785983950550255e+00 -3.016516180089485744e-01 -1.022799834503691274e+00 -2.053287268095093321e+00 -5.292415748937691067e-01 1.326440972303299048e+00 1.483283934533515591e+00 -6.258600401370622013e-01 1.337394386896431087e+00 -3.898641178818866293e-01 -6.071964007465296964e-01 -1.046369653352140272e+00 1.043202053995598622e+00 -3.312043944082678770e-01 1.343314609524980607e+00 -1.487371988897883357e+00 -2.403496230201262129e+00 2.762892258882750918e-01 -4.891220778487396226e-01 -3.370086088525906298e+00 1.223717164988541661e+00 7.194821415085098648e-01 2.327827629468498749e+00 1.477535975831011816e+00 2.882323095920566125e+00 2.261011337651785080e+00 -2.166849818792510707e+00 -3.654105593817898345e+00 -2.348388743148907665e+00 3.265286886567804636e+00 3.058471959164094311e+00 -7.109877301820956008e-01 5.186321739320535196e-01 9.090012565165577207e-01 2.095644653516692824e-01 -1.209003768821540481e+00 1.745799759648256899e-01 -2.659334385633527642e+00 7.153462646213889498e-01 -4.138417651474902037e+00 4.046572182534761697e-01 -4.234694674190151997e-01 3.234848107945868190e+00 -1.974894326227434771e+00 -2.801555997197525461e+00 -1.751815113101637289e+00 7.343461529111492858e+00 -6.675983038662464120e-01 -1.797149836230115816e-01 -1.647178919097435079e+00 3.790038286529541445e+00 4.783509030627435266e+00 1.627984089749872521e+00 6.531939543247781976e-02 1.743477539081025984e+00 -6.129510443178053190e-04 -1.052960419740580855e+00 -1.397188995399252509e-01 -8.092136492546986304e-01 -1.081739808245056222e+00 -2.325470956116058918e+00 1.935623293295764435e+00 -3.983369319399609476e-01 6.381365445263602609e-01 -3.370346284187336616e-01 -3.981492413936723596e-01 -3.265722431479329391e+00 -4.970873561008224417e-01 -9.536494950442272467e-01 -1.528037588299511640e+00 2.556665085710295049e+00 7.047332641149499644e-01 -1.202866545068240978e+00 -2.509159837113640545e+00 -6.810060937400237435e-01 -2.346231073197601269e+00 -2.455087990500259387e+00 8.578028750337537423e-01 5.632053362412076103e-01 4.737047135779874907e-01 -6.029083145396788718e-02 -4.899561437832056221e-01 2.316388790558389754e+00 1.444538435131453580e-01 1.752403895774241160e+00 -1.759113961359227041e+00 1.405053486399081786e+00 7.698716538699111878e-01 1.041453189480728625e+00 -3.074952217569582480e+00 2.189439018814185900e+00 -5.345205643408887930e-01 8.109825683758842274e-01 1.262266746313518873e+00 -5.649428879012327043e-01 1.273909730831508602e+00 -3.037468615703389663e+00 1.077392072439932846e+00 -9.353524949948011091e-01 -1.420148948527432120e+00 -4.503164146277302216e+00 -1.253820671730532244e+00 -3.728217134347477923e+00 -2.518716628354116249e+00 6.754756503829448810e-01 3.885489985061796325e+00 9.710774621533037054e-01 -2.340423979117499387e-02 -1.059324414811451120e+00 4.920470678909278917e+00 7.527496480623189212e-01 2.410142532422577144e+00 2.340796274886028261e+00 1.711340289570346451e+00 2.878366167828263045e+00 -1.724840639165581058e+00 -2.198838458528183715e+00 -2.047424638182117729e+00 -2.110822905173679764e+00 -1.534516768801528486e-01 -8.308685103103290448e-01 6.305358487326846451e-01 -1.284714021428959629e+00 -1.948308088900824409e+00 -1.980248906113744489e+00 2.087250515221857228e+00 -7.181297411338823933e-01 8.990408020463933614e-01 -3.211909752086028469e-01 1.134369780086400992e+00 8.000147556038587071e-01 1.864335338491309280e+00 4.458108130754545040e-01 2.297393993053309658e-01 -3.824464846484266767e-01 1.756629247058771187e-02 5.634866149503031663e-01 1.951184639355450168e+00 4.668470666593447227e-01 2.721564343252027007e-01 3.018577176553936425e+00 3.322199288188578237e+00 -2.829499262884835331e-02 -3.100009676830121297e+00 -8.733570220039929000e-01 -1.441395004146625691e+00 5.783522204370342701e-01 1.577089098465178918e-01 1.214038503448147788e+00 -1.036261103327644095e+00 -6.558735582609694914e-01 -1.193757125814809861e+00 4.656946981272002128e-01 -3.431005811865109667e+00 -1.053176392423981200e+00 2.380096104175485061e-01 9.700706180721171412e-01 1.324831975811964657e+00 -1.852747375585519496e-01 -2.842367121050111578e+00 1.134899941602081963e+00 3.240217600231746209e-01 3.440196992205828863e+00 -1.227224664211101768e+00 -1.962368939031551296e+00 -1.844336782229091476e+00 1.730031696877316172e+00 2.241529058947029640e-01 3.201082835778888747e+00 4.084259415788160097e-01 -9.587731898475684300e-01 -1.182397991109289448e+00 3.619768508260580830e+00 -1.775851844322771100e+00 9.173460296266159331e-01 1.777704067193268234e+00 5.143440877252026394e-02 -1.396477313985380109e+00 -2.047203523291969418e+00 9.681762291062891990e-01 3.511319882173684626e+00 -3.694999507199120181e+00 -3.680303080314387132e-01 -1.090471275302536291e+00 -5.779706686963598239e-01 1.833301606548672247e+00 4.509103395070817588e-01 6.289947293704191769e-03 -6.392302919015818707e-01 -1.079606306665463200e-01 2.141312591642417829e+00 -5.021467733198182737e-01 1.169691084015214599e+00 -2.981132655459025393e+00 1.144515868220154831e+00 1.933278961239518701e+00 -8.020829511577565185e-01 2.474172776623423109e-01 -1.431267942177838037e+00 8.091473147876541150e-01 2.297777601676683101e+00 -1.180307684066376872e+00 7.568006785381038437e-01 -2.697831002229003960e+00 -4.005187702629813828e-01 4.614616335325490842e-02 -2.000318424829079637e-04 -1.650531637896891723e+00 -1.689859749323460836e+00 3.989555394117010878e-01 -9.429506196851029642e-01 -4.242271715832788281e+00 -1.544067389393906753e+00 -3.233431944207570741e+00 -8.568983608668453433e-01 -7.672722683589829895e-01 -1.892548055812195651e+00 -8.090763523345367858e-01 1.789852016413875369e+00 5.201352409643866803e-01 7.177857275024658312e-01 3.152668959249927738e+00 -8.982021081258544370e-01 -2.851480654068940357e+00 2.750432691933237250e-01 -3.203846771905741186e-01 -2.899207017555743171e+00 -5.021379801462797943e+00 -1.404528467090148558e+00 8.755856544084168469e-01 -2.707424817358062175e+00 1.012756076284215379e+00 -2.047758367400038804e+00 1.337716803259507703e+00 -6.204936331752328726e-01 5.744857951834893006e-01 -9.343132550111044043e-02 1.117346504648363270e+00 7.303296266426407835e-01 -1.655656875362257141e+00 -6.565055354702534901e-03 9.855172929213307231e-01 -2.909229178506879121e-01 6.193788027523461359e-03 -8.773792561219910802e-01 1.306923212371984722e+00 4.116166808657220622e-01 3.008000685715405687e-01 -3.098244871474333806e+00 1.901340200909297895e+00 2.589584464867288882e-01 -1.665038317352638186e+00 1.397531980589319600e+00 -7.504942761828072850e-01 -1.046801598718941406e+00 -1.051230067170002336e+00 3.656623218241538548e-02 1.492286395886595951e+00 5.252959596563105960e-01 1.598109925428826239e+00 -2.150526911913500427e+00 1.375372669051746488e+00 6.197737242305643157e-01 -2.323146164445453674e-02 -2.410572420906679003e+00 -6.896578565929155635e-01 1.406300985756057553e+00 -3.161973782359768226e-01 9.941284323409163015e-01 -3.824197451733389874e-01 1.510827650756534801e+00 -9.936831172365713227e-01 3.360180655667941885e+00 -2.107561717654331090e+00 1.766871494458705394e+00 -2.788122496290009966e+00 -2.605794757418526508e+00 -9.715099217407796584e-01 1.898957816523119790e+00 -9.585351056751529875e-01 -8.569441265068992175e-01 -2.079215302958006273e-01 -1.238934497416810832e+00 5.329475632967879406e-01 -2.912559271596645960e+00 -7.443863630079692317e-01 -1.648298891727070004e+00 4.057517369597096746e+00 2.554756298565573625e-01 1.813412579290178739e+00 4.472129900113990253e+00 -1.318314742980015053e+00 -5.803736219095285698e-01 -7.019698422087723433e-01 -2.159863616705177236e+00 -4.895365397125988061e-01 -3.554154464381463763e-01 8.762726532299005555e-01 3.406511424243436892e-01 -2.128681274987533012e+00 -3.117000042144973948e-01 1.939791566085395713e+00 4.335821312089094826e-01 1.382133642483533764e+00 -3.517989324325363626e-02 3.259614004083816741e-01 -2.462853751130534619e+00 8.021276883564608384e-02 2.716864366284691412e-01 3.203337693437725009e-01 1.997134884631620366e+00 -1.716523633971960061e+00 3.414416538676572799e+00 4.702142350597620535e+00 -1.481144776526500451e+00 -4.917128244523317981e+00 3.709485103607201156e-02 -2.876473321524459226e-01 2.444754211820217016e+00 -2.130711932432173494e+00 2.246735543279007707e+00 1.409873276783637719e+00 -1.080324672948107523e+00 2.784327547710256923e+00 -2.106242227402888467e+00 -9.279389755267389850e-01 -3.018989581535096445e+00 1.676843795603853104e+00 -8.281086879488747110e-01 1.767009305599542168e+00 -8.795029875087634341e-01 6.431923622006326946e-01 -2.051904014479980276e+00 -5.739283799720459323e-01 3.409974186267292318e+00 -5.141309946775808548e+00 1.775898638404174612e+00 -3.040391960239418268e+00 2.769693855747844324e+00 -2.607633610551479686e-01 -2.152014038104915983e+00 1.672190098497245536e+00 -2.043663628166898949e+00 8.530586750883879521e-01 -1.645542154689663972e-01 -6.769375797612968704e-01 2.011785031655625833e+00 9.997591487295740542e-01 -6.109980341950544958e-01 -1.699795006980561629e+00 2.411704220611832650e+00 -1.664156943116093801e-01 -8.955656987263433955e-01 -1.256181973069045110e+00 -2.886480055855352722e-01 3.212395176403005426e+00 -2.063025065013085246e+00 -3.800991186901998553e+00 -4.886952746886861210e-01 2.544164381106799766e+00 -7.530309267714144772e-01 4.573181976015091799e+00 -3.676366721049074027e+00 -2.921832213024651903e+00 -1.075677660710272043e+00 -6.647814030098934124e-01 2.694095703247523677e+00 -1.563146519089647857e+00 8.208921149992469690e-01 2.553943829899447682e-01 -3.542368526515890514e-01 -2.608791121290372050e+00 1.747319281742182318e+00 6.949923818729096814e-01 -3.405690728046514959e+00 -7.028008228191896523e-01 4.602886961734140581e-01 5.574238503507094045e+00 1.029302154936072800e+00 9.218331192346000957e-01 -3.062145551664603449e+00 -1.081342829884138990e+00 -1.306419790331391440e+00 1.168548999896565466e+00 -9.424893637398402968e-02 1.310475963013924272e-01 1.480900007485312919e+00 -2.067943585767196002e-01 -2.406939451839476440e+00 3.327725103559584063e+00 1.730361826550514293e+00 -2.805580288198223027e+00 2.047290940806679060e+00 8.571081629021487513e-01 4.068136540751632779e+00 -8.161865844486234423e+00 4.570491059224056629e-01 -9.119194588458392481e-01 6.270768919418221010e+00 -3.636388120468930119e+00 -9.356527998688628500e-01 3.050486626305696003e+00 -4.243765012672301218e+00 -3.179347242077320335e+00 1.211130071311686596e+00 1.833396737373503171e+00 2.287425825273023960e+00 1.021316822077674269e+00 -1.597333966430608265e-01 -1.167904167170412233e+00 -2.467030251450961498e-01 1.321393896380497646e+00 1.897959714193404368e+00 -8.763580138619112558e-01 -2.278280410572359749e-01 3.226208686389171021e+00 5.904451480454419032e-01 -2.944091797593803683e+00 -4.851008721720908579e-01 3.522339631233861179e-01 -8.550456237756730582e-01 6.042077501848056587e-01 5.036719518411660879e-01 1.004179389649838994e+00 6.096518044685242943e-01 8.028321706808866365e-02 4.160688034678223235e-01 -1.267666577619207979e+00 7.828135598123528993e-01 -3.227763175488979931e-03 2.277843322998810566e-02 -1.259940926201564837e+00 2.445599590609527585e+00 2.833571890628960865e-01 1.075468372895643343e+00 -1.159099680777115615e-01 -4.879594249030999586e-01 -7.973552062739831525e-01 1.660593908060659540e+00 1.311547598900130618e+00 6.387376684951585615e-01 -8.328570016596386072e-01 -3.941558036334608661e-01 1.996532218000797609e+00 -1.420575751687485511e+00 2.552457732149382430e-01 -1.338835747447792768e+00 1.945133290454835739e+00 -3.092063424743004774e+00 2.297445929341461301e+00 1.446064127873476046e+00 2.055525670692337936e+00 -4.368311831203335771e+00 -6.010591769932301931e-01 -1.823529356845470795e-01 3.285587290366108748e-01 -1.059977475068400343e+00 3.038566476844008601e+00 1.520827700218655876e+00 -2.196350658903678976e+00 6.097356224385106493e-01 -1.001560463753269792e+00 -4.318337809147144157e-01 -2.830070047833823099e-01 -1.705835557247005863e+00 2.614440349623321058e+00 1.571820907652229149e+00 -5.951811204600114813e-01 2.792943315115915537e-01 3.870329731128425710e+00 -9.855687149888071596e-01 -1.866745490793924933e+00 -1.824890498971569297e+00 2.677133620069782616e+00 -1.823188428538103034e+00 -1.298139809026353508e-01 -3.258727487640524334e+00 2.602743886155155728e+00 -3.958367910192619327e-02 -1.969345370926064209e+00 2.852737409398061974e+00 2.309285860377884969e+00 -2.510013443433747327e+00 -1.443952223562223469e-01 -1.081731066493585303e+00 -5.577407131304984444e-01 2.392735648361165868e-01 8.087009712419597207e-01 7.593445282161577214e-01 2.785492257538596528e-01 7.902954706301582033e-02 -2.730823914942489328e+00 1.686784195467701863e+00 7.866079941714309021e-01 1.515979113476313200e+00 -1.829653210861226897e+00 -4.671733396774819802e+00 -1.448533415553689085e+00 3.982425724461418071e+00 -4.940909922289770106e-01 4.549837385822189439e+00 -2.104910910075926886e-02 7.559409015698997925e-01 -1.901353056426166921e+00 -6.349797438039886943e-01 -2.314688777007622544e+00 3.017036571412345936e+00 -3.166809513585242541e+00 -2.494223783394467375e+00 5.272012501004434526e+00 1.720502159332603309e+00 1.061788560284916416e+00 -5.427939121992222837e+00 3.717044147526221143e-01 -1.759485742907080708e+00 -3.524725615164761905e+00 5.024501635179285941e-01 -2.521038848921346998e-01 -2.849540499463059096e+00 1.831089943426515321e+00 3.685888031062990677e+00 2.170881308882654626e+00 -1.067610052543911392e+00 4.229161659729698819e-01 -1.758237215108755525e+00 -8.216886428244553342e-02 1.013348972722217384e-01 1.154917009808591466e+00 1.001142916565362029e+00 -3.601118238607592947e-01 7.085354117841495825e-01 1.437914758619827760e+00 1.818725507301832467e+00 -1.323487288747458912e+00 -1.593024797176092244e+00 2.720078245501962311e-01 9.883640185768201025e-01 -1.429589011674735843e+00 5.439940518320523360e-02 4.795632297255654763e-01 -5.437832213553993599e-01 -5.449366183288933962e-01 3.794788142902329131e+00 -1.900819809586437481e+00 -5.446429983236035222e-01 1.554217591293058698e+00 6.961210962540149982e-02 8.348892017663028797e-01 -2.601498957901553943e+00 -6.768830723697718543e-01 3.352004032718531312e-01 1.992257501531490727e+00 1.112655269432498151e-01 1.307776304471417184e-01 8.856180997730480620e-01 -1.095047839307929483e+00 -2.377004609478808206e+00 -1.652341180451383895e+00 1.585505862469703819e+00 3.067836431872208447e+00 -1.228311212496876692e+00 1.488987670257989337e-01 -2.665781170233034736e+00 -5.537580740044569794e-01 1.516924765297202660e+00 -1.306802370513415301e+00 1.102352343992941242e+00 -5.711500456663000380e-02 1.819262867906960235e+00 -1.755045447380499946e+00 8.985605199361643702e-01 -1.641475183372961499e+00 -4.657507481807494631e-01 7.550847241464189175e-01 -4.998543775517235166e-01 -2.479528384951082742e+00 3.137367808851671658e+00 -5.705113835882440476e-01 -1.458091235235513761e+00 1.167629059109413836e+00 1.987949360718324066e+00 -9.969196221635312494e-02 -2.394201691504915797e+00 3.121340064639975820e-01 2.043764415419152769e+00 -1.254813117632825437e+00 -6.515546188136328576e-01 5.477235401199077813e+00 -3.720579414665218465e+00 -1.347435059791858736e+00 1.744515236402697900e+00 4.147883939876618742e-01 6.431414543538311879e-01 1.575872452348689112e+00 1.245411621036128791e-01 -1.877691706297610397e+00 -2.244991820970884788e+00 2.333474286698073996e+00 3.183965972178043558e+00 -6.147945254368316625e-01 -1.053705011277638048e+00 -1.824491977948627719e+00 2.420716452157734011e+00 3.161618970094182135e-01 2.423467532767717092e+00 -3.091751292793423200e+00 2.932976917708795650e+00 -6.053014975600271574e-01 -5.035583090720433530e-01 3.674548950963786309e-01 -4.641443227927889992e-01 2.466224467653607366e+00 -4.193891263647686607e-01 4.476146992025240579e-01 -7.257664323747916590e-01 4.288353601601697651e-01 4.996024094210896327e-01 -3.099269713279137473e-01 1.828625283732374929e-01 1.806539505751292740e+00 -1.153006165781171044e-01 -1.570238650635982447e+00 -2.810835109273628785e+00 5.564361352786241888e+00 -1.531802197859453374e+00 -8.024866143874457292e-01 -5.595124090433278852e+00 3.969190712734361526e+00 1.380814152232091363e+00 -3.454855880981304583e+00 -9.379462240783068561e-01 1.979004492080817190e+00 3.275770817684878100e+00 -2.419322914129125479e+00 1.762424514063352932e-01 -8.353705123178812864e-01 6.738640827882368400e-01 -1.992527981606416199e-01 -2.636139947877655931e+00 9.123884281012233366e-01 -3.008283507086525477e-01 2.216455658845572607e+00 -2.015827834600614210e+00 5.486909434753399761e-01 9.285262155373187332e-01 -2.132287504579647663e+00 4.696531688815278049e-02 3.841207871654558348e-01 8.698387241472627096e-01 5.709813812849776626e-01 2.365321001527512124e+00 -1.381257410453737178e+00 -7.478079873778439302e-01 -4.107523787555799721e+00 2.024572157174963305e+00 -1.519644992666700389e+00 -3.140770921277255212e+00 4.311694592249877722e+00 -1.696374411052036457e+00 3.765194228849028768e+00 2.867407611028383041e-01 1.976747063318606834e+00 -1.215235094958321715e+00 -1.220313538342283621e+00 2.455012400061069577e+00 3.383371493879089864e-01 -2.193882399664815352e+00 -2.463784490551855999e+00 3.541027953216782542e+00 -1.182698810204025897e+00 -1.784193532108780511e+00 -1.746996865379105479e+00 2.767129437242799916e+00 -7.617845053179094217e-01 -5.844503634190517660e-01 1.587780774734856459e+00 1.268547951855752087e+00 4.454543038816411560e+00 -2.031858149915684031e+00 -7.650955722427099648e-01 -1.741007222959463085e-01 -3.728619769135817386e+00 1.209117411590663105e+00 -4.810400715034854890e-01 1.515463350139525600e+00 3.620502815384142981e+00 -1.485104275722177514e+00 2.107537035061942454e+00 -1.828112605719635964e+00 1.477827024732927708e+00 -9.700407932729807614e-01 1.120088329286201168e+00 -3.063722152253427478e+00 3.371568586731249262e+00 1.065208641992766880e+00 4.031900952463090881e+00 -1.026802528236048673e+00 1.336404512097511876e+00 -2.553635297494589729e+00 -1.856865768969698571e+00 -2.048540497046353881e+00 -1.338297872621990070e+00 -4.648508619999137670e-01 2.224350488865213471e+00 -2.976134430500326777e-01 -3.180872934819342301e+00 -7.356749505568048464e-02 -1.121438672778129142e+00 -1.883379501181166593e-01 -8.940430913083693421e-01 -1.594004901782190897e+00 -3.076700567863777103e-01 -3.142843744817225726e+00 -6.735318962323397773e-01 -8.729153064443713195e-01 -1.019472312517298196e+00 -5.559740565802818502e+00 -7.543586445536530904e-01 2.547783466215783332e-01 1.430746008192953278e+00 -2.216872177592131010e-01 -3.099148357199892789e+00 -2.834374074881590988e-01 -1.705425723369219382e+00 -1.028239260801337096e+00 -5.053786502607052755e-01 7.466072821022717854e-01 -9.881161642115844357e-01 2.791512238978049343e+00 -1.642644006966698322e+00 2.374393911113035216e+00 9.351869159375272300e-01 -1.477048494631336251e+00 4.187179655400677269e+00 1.651205781201506406e+00 3.13186359074900622