1.860500000000000043e+01 0.000000000000000000e+00 0.000000000000000000e+00 0.000000000000000000e+00 1.859499999999999886e+01 0.000000000000000000e+00 0.000000000000000000e+00 0.000000000000000000e+00 2.441799999999999926e+01
1.817500000000000071e+01 0.000000000000000000e+00 0.000000000000000000e+00 0.000000000000000000e+00 1.816499999999999915e+01 0.000000000000000000e+00 0.000000000000000000e+00 0.000000000000000000e+00 2.385300000000000153e+01
1.868599999999999994e+01 0.000000000000000000e+00 0.000000000000000000e+00 0.000000000000000000e+00 1.867500000000000071e+01 0.000000000000000000e+00 0.000000000000000000e+00 0.000000000000000000e+00 2.452299999999999969e+01
1.828900000000000148e+01 0.000000000000000000e+00 0.000000000000000000e+00 0.000000000000000000e+00 1.827899999999999991e+01 0.000000000000000000e+00 0.000000000000000000e+00 0.000000000000000000e+00 2.400199999999999889e+01
1.844200000000000017e+01 0.000000000000000000e+00 0.000000000000000000e+00 0.000000000000000000e+00 1.843199999999999861e+01 0.000000000000000000e+00 0.000000000000000000e+00 0.000000000000000000e+00 2.420299999999999940e+01
1.839499999999999957e+01 0.000000000000000000e+00 0.000000000000000000e+00 0.000000000000000000e+00 1.838500000000000156e+01 0.000000000000000000e+00 0.000000000000000000e+00 0.000000000000000000e+00 2.414199999999999946e+01
1.843599999999999994e+01 0.000000000000000000e+00 0.000000000000000000e+00 0.000000000000000000e+00 1.842500000000000071e+01 0.000000000000000000e+00 0.000000000000000000e+00 0.000000000000000000e+00 2.419500000000000028e+01
1.850900000000000034e+01 0.000000000000000000e+00 0.000000000000000000e+00 0.000000000000000000e+00 1.849899999999999878e+01 0.000000000000000000e+00 0.000000000000000000e+00 0.000000000000000000e+00 2.429100000000000037e+01
1.858599999999999852e+01 0.000000000000000000e+00 0.000000000000000000e+00 0.000000000000000000e+00 1.857499999999999929e+01 0.000000000000000000e+00 0.000000000000000000e+00 0.000000000000000000e+00 2.439199999999999946e+01
1.853000000000000114e+01 0.000000000000000000e+00 0.000000000000000000e+00 0.000000000000000000e+00 1.851999999999999957e+01 0.000000000000000000e+00 0.000000000000000000e+00 0.000000000000000000e+00 2.431899999999999906e+01
1.828800000000000026e+01 0.000000000000000000e+00 0.000000000000000000e+00 0.000000000000000000e+00 1.827799999999999869e+01 0.000000000000000000e+00 0.000000000000000000e+00 0.000000000000000000e+00 2.400100000000000122e+01
1.803999999999999915e+01 0.000000000000000000e+00 0.000000000000000000e+00 0.000000000000000000e+00 1.803000000000000114e+01 0.000000000000000000e+00 0.000000000000000000e+00 0.000000000000000000e+00 2.367599999999999838e+01
1.852599999999999980e+01 0.000000000000000000e+00 0.000000000000000000e+00 0.000000000000000000e+00 1.851500000000000057e+01 0.000000000000000000e+00 0.000000000000000000e+00 0.000000000000000000e+00 2.431299999999999883e+01
1.862399999999999878e+01 0.000000000000000000e+00 0.000000000000000000e+00 0.000000000000000000e+00 1.861299999999999955e+01 0.000000000000000000e+00 0.000000000000000000e+00 0.000000000000000000e+00 2.444200000000000017e+01
1.819600000000000151e+01 0.000000000000000000e+00 0.000000000000000000e+00 0.000000000000000000e+00 1.818599999999999994e+01 0.000000000000000000e+00 0.000000000000000000e+00 0.000000000000000000e+00 2.387999999999999901e+01
1.850000000000000000e+01 0.000000000000000000e+00 0.000000000000000000e+00 0.000000000000000000e+00 1.848900000000000077e+01 0.000000000000000000e+00 0.000000000000000000e+00 0.000000000000000000e+00 2.427899999999999991e+01
1.846499999999999986e+01 0.000000000000000000e+00 0.000000000000000000e+00 0.000000000000000000e+00 1.845499999999999829e+01 0.000000000000000000e+00 0.000000000000000000e+00 0.000000000000000000e+00 2.423400000000000176e+01
1.872299999999999898e+01 0.000000000000000000e+00 0.000000000000000000e+00 0.000000000000000000e+00 1.871199999999999974e+01 0.000000000000000000e+00 0.000000000000000000e+00 0.000000000000000000e+00 2.457199999999999918e+01
1.848000000000000043e+01 0.000000000000000000e+00 0.000000000000000000e+00 0.000000000000000000e+00 1.846999999999999886e+01 0.000000000000000000e+00 0.000000000000000000e+00 0.000000000000000000e+00 2.425400000000000134e+01
1.823499999999999943e+01 0.000000000000000000e+00 0.000000000000000000e+00 0.000000000000000000e+00 1.822500000000000142e+01 0.000000000000000000e+00 0.000000000000000000e+00 0.000000000000000000e+00 2.393199999999999861e+01
1.779100000000000037e+01 0.000000000000000000e+00 0.000000000000000000e+00 0.000000000000000000e+00 1.778099999999999881e+01 0.000000000000000000e+00 0.000000000000000000e+00 0.000000000000000000e+00 2.334900000000000020e+01
1.858099999999999952e+01 0.000000000000000000e+00 0.000000000000000000e+00 0.000000000000000000e+00 1.857000000000000028e+01 0.000000000000000000e+00 0.000000000000000000e+00 0.000000000000000000e+00 2.438500000000000156e+01
1.911499999999999844e+01 0.000000000000000000e+00 0.000000000000000000e+00 0.000000000000000000e+00 1.910399999999999920e+01 0.000000000000000000e+00 0.000000000000000000e+00 0.000000000000000000e+00 2.508599999999999852e+01
1.851599999999999824e+01 0.000000000000000000e+00 0.000000000000000000e+00 0.000000000000000000e+00 1.850600000000000023e+01 0.000000000000000000e+00 0.000000000000000000e+00 0.000000000000000000e+00 2.430099999999999838e+01
1.854299999999999926e+01 0.000000000000000000e+00 0.000000000000000000e+00 0.000000000000000000e+00 1.853300000000000125e+01 0.000000000000000000e+00 0.000000000000000000e+00 0.000000000000000000e+00 2.433599999999999852e+01
1.849899999999999878e+01 0.000000000000000000e+00 0.000000000000000000e+00 0.000000000000000000e+00 1.848799999999999955e+01 0.000000000000000000e+00 0.000000000000000000e+00 0.000000000000000000e+00 2.427799999999999869e+01
1.827599999999999980e+01 0.000000000000000000e+00 0.000000000000000000e+00 0.000000000000000000e+00 1.826599999999999824e+01 0.000000000000000000e+00 0.000000000000000000e+00 0.000000000000000000e+00 2.398499999999999943e+01
1.835699999999999932e+01 0.000000000000000000e+00 0.000000000000000000e+00 0.000000000000000000e+00 1.834700000000000131e+01 0.000000000000000000e+00 0.000000000000000000e+00 0.000000000000000000e+00 2.409199999999999875e+01
1.874800000000000111e+01 0.000000000000000000e+00 0.000000000000000000e+00 0.000000000000000000e+00 1.873699999999999832e+01 0.000000000000000000e+00 0.000000000000000000e+00 0.000000000000000000e+00 2.460399999999999920e+01
1.832499999999999929e+01 0.000000000000000000e+00 0.000000000000000000e+00 0.000000000000000000e+00 1.831500000000000128e+01 0.000000000000000000e+00 0.000000000000000000e+00 0.000000000000000000e+00 2.404899999999999949e+01
1.809499999999999886e+01 0.000000000000000000e+00 0.000000000000000000e+00 0.000000000000000000e+00 1.808399999999999963e+01 0.000000000000000000e+00 0.000000000000000000e+00 0.000000000000000000e+00 2.374699999999999989e+01
1.864799999999999969e+01 0.000000000000000000e+00 0.000000000000000000e+00 0.000000000000000000e+00 1.863700000000000045e+01 0.000000000000000000e+00 0.000000000000000000e+00 0.000000000000000000e+00 2.447299999999999898e+01
1.855900000000000105e+01 0.000000000000000000e+00 0.000000000000000000e+00 0.000000000000000000e+00 1.854799999999999827e+01 0.000000000000000000e+00 0.000000000000000000e+00 0.000000000000000000e+00 2.435600000000000165e+01
1.887500000000000000e+01 0.000000000000000000e+00 0.000000000000000000e+00 0.000000000000000000e+00 1.886499999999999844e+01 0.000000000000000000e+00 0.000000000000000000e+00 0.000000000000000000e+00 2.477199999999999847e+01
1.828099999999999881e+01 0.000000000000000000e+00 0.000000000000000000e+00 0.000000000000000000e+00 1.827100000000000080e+01 0.000000000000000000e+00 0.000000000000000000e+00 0.000000000000000000e+00 2.399200000000000088e+01
1.835800000000000054e+01 0.000000000000000000e+00 0.000000000000000000e+00 0.000000000000000000e+00 1.834799999999999898e+01 0.000000000000000000e+00 0.000000000000000000e+00 0.000000000000000000e+00 2.409299999999999997e+01
1.851800000000000068e+01 0.000000000000000000e+00 0.000000000000000000e+00 0.000000000000000000e+00 1.850799999999999912e+01 0.000000000000000000e+00 0.000000000000000000e+00 0.000000000000000000e+00 2.430300000000000082e+01
1.844200000000000017e+01 0.000000000000000000e+00 0.000000000000000000e+00 0.000000000000000000e+00 1.843199999999999861e+01 0.000000000000000000e+00 0.000000000000000000e+00 0.000000000000000000e+00 2.420299999999999940e+01
1.806400000000000006e+01 0.000000000000000000e+00 0.000000000000000000e+00 0.000000000000000000e+00 1.805399999999999849e+01 0.000000000000000000e+00 0.000000000000000000e+00 0.000000000000000000e+00 2.370700000000000074e+01
1.820299999999999940e+01 0.000000000000000000e+00 0.000000000000000000e+00 0.000000000000000000e+00 1.819300000000000139e+01 0.000000000000000000e+00 0.000000000000000000e+00 0.000000000000000000e+00 2.389000000000000057e+01
1.861799999999999855e+01 0.000000000000000000e+00 0.000000000000000000e+00 0.000000000000000000e+00 1.860800000000000054e+01 0.000000000000000000e+00 0.000000000000000000e+00 0.000000000000000000e+00 2.443400000000000105e+01
1.838800000000000168e+01 0.000000000000000000e+00 0.000000000000000000e+00 0.000000000000000000e+00 1.837800000000000011e+01 0.000000000000000000e+00 0.000000000000000000e+00 0.000000000000000000e+00 2.413200000000000145e+01
1.845499999999999829e+01 0.000000000000000000e+00 0.000000000000000000e+00 0.000000000000000000e+00 1.844500000000000028e+01 0.000000000000000000e+00 0.000000000000000000e+00 0.000000000000000000e+00 2.421999999999999886e+01
1.878300000000000125e+01 0.000000000000000000e+00 0.000000000000000000e+00 0.000000000000000000e+00 1.877199999999999847e+01 0.000000000000000000e+00 0.000000000000000000e+00 0.000000000000000000e+00 2.464999999999999858e+01
1.843400000000000105e+01 0.000000000000000000e+00 0.000000000000000000e+00 0.000000000000000000e+00 1.842399999999999949e+01 0.000000000000000000e+00 0.000000000000000000e+00 0.000000000000000000e+00 2.419300000000000139e+01
