1.395176099999999941e+01 7.892839000000000382e+00 7.891530999999999629e+00 1.456116100000000024e+01 7.417318999999999996e+00 2.153877100000000056e+01 7.541761000000000159e+00 1.391401899999999969e+01 8.696471000000000728e+00 8.961270999999999987e+00 1.576991899999999980e+01 1.997187100000000015e+01 2.367580999999999936e+00 1.720461900000000099e+01 2.232409999999999950e-01 2.423720000000000041e-01 1.693621900000000124e+01 9.279910000000000103e-01 3.033951000000000064e+00 4.336338999999999722e+00 2.574301000000000172e+00 3.736930999999999781e+00 4.036078999999999972e+00 4.964781000000000333e+00 2.258591000000000015e+00 2.766458999999999779e+00 3.847660999999999998e+00 1.545926099999999970e+01 8.106218999999999397e+00 9.631771000000000527e+00 1.562066100000000013e+01 6.166399000000000186e+00 8.296360999999999208e+00 1.778476099999999960e+01 1.786171900000000079e+01 2.877451000000000203e+00 1.684766099999999867e+01 2.592610000000000192e-01 4.874011000000000315e+00 4.704499999999999654e-02 1.349718999999999891e+00 3.704641000000000073e+00 2.489170999999999800e+00 5.973779000000000394e+00 6.337009999999999588e-01 5.382680999999999827e+00 4.712678999999999618e+00 6.905040999999999762e+00 2.724800999999999807e+00 6.372500000000000386e-02 1.181177100000000024e+01 1.472210999999999936e+00 1.538178999999999963e+00 1.076927099999999982e+01 6.924310000000000187e-01 7.855990000000000473e-01 1.283487099999999970e+01 5.337100999999999651e+00 4.607948999999999629e+00 1.362397099999999917e+01 6.382181000000000104e+00 4.789359000000000144e+00 1.590957099999999969e+01 4.214910999999999852e+00 3.924028999999999989e+00 1.565567099999999989e+01 1.531406100000000059e+01 7.302628999999999593e+00 2.379597100000000154e+01 1.647546099999999925e+01 6.029059000000000168e+00 2.225707099999999983e+01 5.954509999999999525e-01 1.350159000000000109e+00 1.517297100000000043e+01 2.445479999999999876e-01 1.611539000000000055e+00 1.740667099999999934e+01 2.018361000000000072e+00 2.904478999999999811e+00 1.639227100000000092e+01 3.747551000000000077e+00 5.216758999999999702e+00 1.188537099999999924e+01 7.784050999999999831e+00 4.173559000000000019e+00 1.770647100000000052e+01 1.831136100000000155e+01 8.763529000000000124e+00 2.059480999999999895e+00 1.698686100000000110e+01 8.630708999999999520e+00 3.818490999999999858e+00 1.459926100000000027e+01 1.361651900000000026e+01 1.303180999999999923e+00 1.637126100000000051e+01 1.318991899999999973e+01 2.712781000000000109e+00 1.421826100000000004e+01 1.289511899999999933e+01 3.476860999999999979e+00 9.958010000000000472e-01 7.843269000000000268e+00 3.254210000000000158e-01 8.067401000000000266e+00 1.500121900000000075e+01 1.069687099999999980e+01 9.778560999999999837e+00 1.475751900000000028e+01 9.078780999999999324e+00 1.593936099999999989e+01 9.841018999999999295e+00 5.649681000000000175e+00 1.510506099999999918e+01 1.143001899999999971e+01 7.333101000000000091e+00 1.417456100000000063e+01 1.143211900000000014e+01 5.215721000000000274e+00 1.468296100000000060e+01 1.490011900000000011e+01 2.366457099999999869e+01 1.799386099999999900e+01 1.336311899999999930e+01 4.649211000000000205e+00 1.806416099999999858e+01 6.580739000000000338e+00 1.269037100000000073e+01 1.667816099999999935e+01 8.269959000000000060e+00 1.188187100000000029e+01 1.754666100000000029e+01 8.417419000000000651e+00 1.412847099999999934e+01 1.806596100000000149e+01 1.508431900000000070e+01 1.361877100000000063e+01 1.853396100000000146e+01 1.398951899999999959e+01 1.558387100000000025e+01 1.627296099999999868e+01 1.354071899999999928e+01 1.443267099999999914e+01 1.416560999999999959e+00 5.223048999999999609e+00 1.167917100000000019e+01 2.532601000000000102e+00 5.954888999999999655e+00 9.868570999999999316e+00 8.494611000000000800e+00 1.656791899999999984e+01 2.243337100000000106e+01 1.130806100000000036e+01 1.638251899999999850e+01 1.880267100000000013e+01 1.678766099999999994e+01 1.002031900000000064e+01 1.588687099999999930e+01 1.554016099999999945e+01 1.139291899999999913e+01 1.759107099999999946e+01 1.513596100000000000e+01 1.177531899999999965e+01 1.532467100000000038e+01 1.802806100000000100e+01 1.579091900000000059e+01 1.142467100000000002e+01 2.616260000000000252e-01 1.367691899999999983e+01 1.803727100000000050e+01 1.609156099999999867e+01 8.166399000000000186e+00 1.767390999999999934e+00 2.166631000000000196e+00 7.118828999999999851e+00 2.295537099999999953e+01 1.439486100000000057e+01 1.675161900000000159e+01 2.221897099999999980e+01 1.643536100000000033e+01 1.731341899999999967e+01 1.049987100000000062e+01 1.763086099999999945e+01 1.592691899999999983e+01 9.123131000000000768e+00 1.606666099999999986e+01 1.520261900000000033e+01 2.184907099999999858e+01 1.364686099999999946e+01 2.397140000000000104e-01 2.304677099999999967e+01 1.297566100000000056e+01 5.053889999999999771e-01 8.605810000000000404e-01 1.121946100000000079e+01 2.445059000000000093e+00 9.889870999999999412e+00 9.461760999999999200e+00 2.441459000000000046e+00 8.407351000000000241e+00 1.169086099999999995e+01 2.407029000000000085e+00 7.797310999999999659e+00 1.212306099999999986e+01 8.883328999999999809e+00 3.261680999999999830e+00 1.283816099999999949e+01 7.984258999999999773e+00 5.439311000000000007e+00 1.211136100000000049e+01 6.461268999999999707e+00 3.783800999999999970e+00 6.622821000000000069e+00 6.288028999999999868e+00 8.130110999999999422e+00 7.217630999999999908e+00 3.958019000000000176e+00 8.255050999999999917e+00 1.306916099999999936e+01 1.470129000000000019e+00 3.160620999999999903e+00 1.245506100000000060e+01 2.177528999999999826e+00 5.500060999999999645e+00 1.197716100000000061e+01 3.670008999999999855e+00 3.806261000000000116e+00 1.221706099999999928e+01 9.803618999999999417e+00 1.075320999999999971e+00 1.478606100000000012e+01 2.908749999999999947e-01 1.165587099999999943e+01 1.288796100000000067e+01 1.518019000000000007e+00 1.175467100000000009e+01 1.463006099999999954e+01 2.130269000000000190e+00 1.330397100000000066e+01 9.804460999999999871e+00 1.677490000000000092e-01 2.229977099999999979e+01 1.015746099999999963e+01 1.104478999999999989e+00 1.994747100000000017e+01 1.201506099999999932e+01 2.257160000000000000e-01 1.868647100000000094e+01 1.324476100000000045e+01 7.321309000000000289e+00 1.699407100000000170e+01 1.349396100000000054e+01 7.264098999999999862e+00 1.937297099999999972e+01 1.479266100000000073e+01 5.694818999999999853e+00 1.810867100000000107e+01 7.378331000000000195e+00 4.942658999999999914e+00 1.999627100000000013e+01 8.816881000000000412e+00 3.158869000000000149e+00 1.970517099999999999e+01 1.509606100000000062e+01 2.526069000000000120e+00 1.574587099999999928e+01 1.400056099999999937e+01 1.701229000000000102e+00 1.790597100000000097e+01 1.568076100000000039e+01 3.339958999999999900e+00 1.779797100000000043e+01 1.235716099999999962e+01 8.412838999999999956e+00 1.457337099999999985e+01 8.579610999999999876e+00 7.707859000000000016e+00 2.290707099999999841e+01 6.187361000000000111e+00 8.077379000000000531e+00 2.334487100000000126e+01 2.125830999999999804e+00 7.460158999999999985e+00 7.524830999999999825e+00 1.380411000000000055e+00 9.688919000000000281e+00 6.390400999999999776e+00 2.428110999999999908e+00 7.657638999999999641e+00 5.187490999999999630e+00 6.670830999999999733e+00 1.432871899999999954e+01 4.345210999999999935e+00 6.361601000000000283e+00 1.320391900000000085e+01 6.474921000000000149e+00 5.541521000000000363e+00 1.221771900000000066e+01 4.310330999999999690e+00 1.089016100000000087e+01 8.825148999999999688e+00 2.366447099999999892e+01 1.823326099999999883e+01 1.423391900000000021e+01 6.983420999999999879e+00 4.967710000000000181e-01 1.208891900000000064e+01 6.419630999999999865e+00 5.157591000000000037e+00 8.481369000000000824e+00 1.217691000000000079e+00 3.816291000000000100e+00 7.917508999999999908e+00 3.304621000000000031e+00 4.978870999999999825e+00 9.916318999999999662e+00 3.091690999999999967e+00 6.680151000000000394e+00 1.592361900000000041e+01 2.261820999999999859e+00 8.229120999999999242e+00 7.832398999999999667e+00 1.190377100000000077e+01 6.484130999999999645e+00 7.534628999999999799e+00 1.021467099999999917e+01 5.923331000000000124e+00 8.722018999999999522e+00 1.239667099999999955e+01 2.358451000000000075e+00 8.270839000000000496e+00 2.075147099999999867e+01 1.163740999999999914e+00 1.021591899999999953e+01 2.029127099999999828e+01 2.624471000000000220e+00 9.233468999999999482e+00 1.875427099999999925e+01 6.152921000000000085e+00 1.498231900000000039e+01 1.627747099999999847e+01 7.608511000000000024e+00 1.469431900000000013e+01 1.816597099999999898e+01 7.027521000000000129e+00 1.282401899999999983e+01 1.676617099999999994e+01 1.039816099999999999e+01 8.144788999999999390e+00 1.295247099999999918e+01 1.196026099999999914e+01 9.985419000000000267e+00 1.276367100000000043e+01 1.771326099999999926e+01 1.422111899999999984e+01 2.000707099999999983e+01 6.072710000000000052e-01 1.249411899999999953e+01 2.025277099999999919e+01 5.180811000000000277e+00 9.620518999999999821e+00 1.458467100000000016e+01 4.007201000000000235e+00 9.938418999999999670e+00 1.657477099999999837e+01 6.356540999999999997e+00 1.038841900000000074e+01 1.626707100000000139e+01 5.142271000000000036e+00 1.610611899999999963e+01 1.434837100000000021e+01 6.844291000000000125e+00 6.711089000000000304e+00 2.164007099999999895e+01 1.181146099999999954e+01 1.091471899999999984e+01 2.344777099999999947e+01 4.953950999999999993e+00 1.648371900000000068e+01 7.183709999999999818e-01 4.223640999999999757e+00 1.671291899999999941e+01 1.224147100000000066e+01 6.402661000000000158e+00 1.567811900000000058e+01 1.233527100000000054e+01 7.174400999999999584e+00 1.618761900000000153e+01 8.215799999999999492e-02 1.256056099999999986e+01 1.183041899999999913e+01 1.094527099999999997e+01 1.202436100000000074e+01 1.382471899999999998e+01 9.691171000000000646e+00 1.388646100000000061e+01 1.223311900000000030e+01 9.042890999999999124e+00 1.315876100000000015e+01 1.240061900000000072e+01 2.138377099999999942e+01 1.293666100000000085e+01 1.434571900000000078e+01 1.971657099999999829e+01 1.459096100000000007e+01 1.267401899999999948e+01 1.972097099999999870e+01 3.789210000000000078e-01 1.832421899999999937e+01 2.369957099999999883e+01 1.168326099999999990e+01 1.286399000000000070e+00 2.326657099999999900e+01 1.835006100000000018e+01 2.130158999999999914e+00 9.027741000000000682e+00 1.657526100000000113e+01 3.594479000000000202e+00 8.007891000000000759e+00 1.695646100000000089e+01 1.446109000000000089e+00 7.107200999999999880e+00 5.927099999999999730e-02 1.589809000000000028e+00 2.207797100000000157e+01 1.760226099999999860e+01 3.711589000000000027e+00 2.153647099999999881e+01 1.796626099999999937e+01 2.052738999999999869e+00 1.988087099999999907e+01 1.314956100000000028e+01 8.567748999999999171e+00 6.777200999999999809e+00 1.343006100000000025e+01 7.592438999999999716e+00 2.078337099999999893e+01 6.687591000000000285e+00 1.326621899999999954e+01 7.857921000000000156e+00 7.814620999999999817e+00 1.521371899999999933e+01 1.935387100000000160e+01 9.508210000000000273e-01 1.631399000000000044e+00 9.508870999999999185e+00 1.794296100000000038e+01 1.672101899999999830e+01 1.976461000000000023e+00 1.634581000000000062e+00 1.646551900000000046e+01 1.109941000000000066e+00 1.593796099999999960e+01 4.874998999999999860e+00 8.213501000000000829e+00 3.154710999999999821e+00 5.048089000000000048e+00 1.346730999999999900e+00 4.299330999999999570e+00 4.267708999999999975e+00 6.247631000000000157e+00 1.015690999999999899e+00 2.242538999999999838e+00 4.059810999999999837e+00 3.094821000000000044e+00 2.802538999999999891e+00 5.005321000000000353e+00 2.427230999999999916e+00 3.121989000000000125e+00 2.485081000000000095e+00 3.693591000000000069e+00 4.758039000000000129e+00 3.794780999999999960e+00 1.431696099999999916e+01 6.552018999999999593e+00 7.729941000000000173e+00 1.423946100000000037e+01 8.568868999999999403e+00 9.028881000000000157e+00 1.610476099999999988e+01 7.004598999999999798e+00 9.212471000000000743e+00 1.736826100000000039e+01 1.524958999999999953e+00 4.331781000000000326e+00 1.846386100000000141e+01 4.507289999999999908e-01 2.616550999999999849e+00 1.680916099999999958e+01 1.786211899999999986e+01 3.828660999999999870e+00 1.575096100000000021e+01 8.903288999999999120e+00 1.088697100000000084e+01 1.860406100000000151e+01 8.273690000000000211e-01 1.402807100000000062e+01 7.983310000000000128e-01 1.806108999999999964e+00 1.190167100000000033e+01 1.603410999999999920e+00 1.833721900000000105e+01 1.259117099999999922e+01 2.832510999999999779e+00 1.084799000000000069e+00 1.094067100000000003e+01 1.717586100000000116e+01 4.937749000000000166e+00 2.189497100000000174e+01 5.177271000000000178e+00 5.015969000000000122e+00 1.230667099999999969e+01 7.544910999999999923e+00 4.408548999999999829e+00 1.632047100000000128e+01 3.232791000000000192e+00 3.506428999999999796e+00 1.652837099999999992e+01 5.045670999999999573e+00 4.802298999999999651e+00 1.637217100000000158e+01 4.305630999999999986e+00 3.904558999999999891e+00 1.420007099999999944e+01 6.439381000000000022e+00 4.768219000000000207e+00 1.448347099999999976e+01 1.580876100000000051e+01 6.856929000000000052e+00 2.127557099999999934e+01 1.430336100000000066e+01 7.465269000000000155e+00 2.297637100000000032e+01 1.616576099999999983e+01 6.308018999999999821e+00 2.374277100000000118e+01 1.186881000000000075e+00 2.688809000000000005e+00 1.746747099999999975e+01 1.509451000000000098e+00 2.354029000000000149e+00 1.513657100000000000e+01 7.096500000000000030e-02 8.774490000000000345e-01 1.642347099999999926e+01 1.517976099999999917e+01 7.924318999999999669e+00 8.577810000000000157e-01 9.409910000000000219e-01 8.899169000000000551e+00 1.276880999999999933e+00 1.668166099999999830e+01 8.736169000000000295e+00 5.170740999999999588e+00 1.821696100000000129e+01 8.507129000000000829e+00 3.336291000000000118e+00 1.107636100000000035e+01 1.448781900000000000e+01 8.938041000000000125e+00 1.401706099999999999e+01 1.418541899999999956e+01 1.864609999999999879e-01 1.757926099999999892e+01 1.328541899999999920e+01 3.354640999999999984e+00 1.357716100000000026e+01 1.233301900000000018e+01 4.397950999999999944e+00 1.558736099999999958e+01 1.288231900000000074e+01 3.778020999999999852e+00 1.366866100000000017e+01 1.316011899999999990e+01 2.190970999999999780e+00 1.608196099999999973e+01 1.352481900000000081e+01 1.328321000000000085e+00 1.206240999999999897e+00 6.508628999999999998e+00 1.017681000000000058e+00 8.750121000000000038e+00 1.446091900000000052e+01 8.255620999999999654e+00 7.328530999999999906e+00 1.404801900000000003e+01 1.003627099999999928e+01 9.319751000000000118e+00 1.539801899999999968e+01 1.029847099999999926e+01 1.411126100000000072e+01 1.176911899999999989e+01 6.471220999999999890e+00 1.501996100000000034e+01 1.047981900000000088e+01 4.750701000000000285e+00 1.596756099999999989e+01 1.030831899999999912e+01 6.889281000000000432e+00 1.202619999999999939e-01 5.402269000000000432e+00 1.238927100000000081e+01 1.760036099999999948e+01 8.949828999999999368e+00 1.544137100000000018e+01 1.696546100000000123e+01 9.152668999999999500e+00 1.290847100000000047e+01 1.802476100000000159e+01 6.999729000000000312e+00 1.387647100000000044e+01 1.721976099999999832e+01 7.011839000000000155e+00 1.170687099999999958e+01 1.189146099999999961e+01 1.499771900000000002e+01 1.900047100000000100e+01 1.298099999999999948e-02 1.583271900000000088e+01 1.256687100000000079e+01 4.992309999999999803e-01 1.358431900000000070e+01 1.674997099999999861e+01 1.510396099999999997e+01 1.287631900000000051e+01 1.438557100000000055e+01 1.718206100000000092e+01 1.351841899999999974e+01 1.559947099999999942e+01 1.682836100000000101e+01 1.450181899999999935e+01 1.352737100000000048e+01 3.868510000000000004e-01 1.489261899999999983e+01 1.468877099999999913e+01 3.763100999999999807e+00 5.700048999999999921e+00 1.045627099999999920e+01 2.669521000000000033e+00 5.149358999999999575e+00 1.258937099999999987e+01 1.390420999999999907e+00 5.272358999999999796e+00 1.032467100000000038e+01 9.963960999999999402e+00 1.636351900000000015e+01 1.904627100000000084e+01 9.072941000000000145e+00 1.594961900000000021e+01 2.134577099999999916e+01 8.797541000000000722e+00 1.794731900000000024e+01 2.271987100000000126e+01 1.460576099999999933e+01 1.169981899999999975e+01 1.671947099999999864e+01 1.628246100000000141e+01 1.100571899999999914e+01 1.502677100000000010e+01 1.645416099999999915e+01 1.030781900000000029e+01 1.723487099999999828e+01 2.485180999999999862e+00 6.831989000000000090e+00 8.785071000000000296e+00 1.586426100000000083e+01 8.444489000000000800e+00 3.036370999999999931e+00 1.733406099999999839e+01 8.252848999999999435e+00 1.195470999999999950e+00 2.854410999999999810e+00 6.235559000000000296e+00 2.381607100000000088e+01 1.197121000000000102e+00 8.027039000000000257e+00 2.339007099999999895e+01 2.717620999999999842e+00 7.114309000000000438e+00 2.159877099999999928e+01 1.384016100000000016e+01 1.800211900000000043e+01 2.201177099999999953e+01 1.393206099999999914e+01 1.568251899999999921e+01 2.304257099999999880e+01 1.554316099999999956e+01 1.826871900000000082e+01 1.076227100000000014e+01 1.853916100000000000e+01 1.539521900000000088e+01 1.019067100000000003e+01 1.683516099999999938e+01 1.657351900000000100e+01 1.143967100000000059e+01 1.674386099999999900e+01 1.695501900000000006e+01 9.266370999999999469e+00 1.778386100000000170e+01 1.535431900000000027e+01 7.877561000000000035e+00 1.602446099999999873e+01 1.486221899999999962e+01 2.317977099999999879e+01 1.553426100000000076e+01 1.650711899999999943e+01 2.147427100000000166e+01 1.664766099999999938e+01 1.455671899999999930e+01 2.074887100000000117e+01 1.177156100000000016e+01 1.725648999999999988e+00 1.105467100000000080e+01 1.371556099999999923e+01 7.134390000000000454e-01 2.090510999999999786e+00 1.358856100000000033e+01 1.831391899999999850e+01 2.438997099999999918e+01 8.255451000000000761e+00 3.175339000000000134e+00 8.457321000000000311e+00 1.259646099999999969e+01 1.985829000000000066e+00 6.833901000000000003e+00 1.030556100000000086e+01 1.883469000000000060e+00 7.624041000000000068e+00 1.222046100000000024e+01 3.062778999999999918e+00 8.848731000000000790e+00 9.956061000000000050e+00 2.575829000000000146e+00 9.687371000000000620e+00 1.219776099999999985e+01 9.963018999999999181e+00 2.477161000000000168e+00 1.193866099999999975e+01 5.128478999999999566e+00 3.376110999999999862e+00 1.245806100000000072e+01 6.686088999999999949e+00 5.118790999999999869e+00 1.161156100000000002e+01 7.522819000000000145e+00 3.038231000000000126e+00 1.272376099999999965e+01 9.053288999999999476e+00 4.464510999999999896e+00 6.064110999999999585e+00 3.712528999999999968e+00 7.491630999999999929e+00 6.141500999999999877e+00 5.979349000000000025e+00 6.781981000000000037e+00 7.403800999999999632e+00 5.353669000000000011e+00 8.713070999999999344e+00 1.159156100000000045e+01 3.096408999999999967e+00 5.043950999999999851e+00 1.259596100000000085e+01 2.804568999999999868e+00 3.006991000000000192e+00 1.324546100000000060e+01 1.155318999999999985e+00 4.671591000000000271e+00 6.085130999999999624e+00 7.270069000000000337e+00 8.872301000000000215e+00 1.500056099999999937e+01 2.540179000000000187e+00 1.444827100000000009e+01 1.337726100000000073e+01 2.417028999999999872e+00 1.277967100000000045e+01 1.547546099999999925e+01 1.183699000000000057e+00 1.255637100000000039e+01 1.337596100000000021e+01 3.085249999999999937e-01 1.149927100000000024e+01 9.397961000000000453e+00 2.211469000000000129e+00 2.045727099999999865e+01 1.314826099999999975e+01 9.750090000000000146e-01 1.880337099999999850e+01 1.074966099999999969e+01 8.649189999999999934e-01 1.871177099999999882e+01 1.236536100000000005e+01 1.736771900000000102e+01 1.862907099999999971e+01 1.049936100000000039e+01 1.547550000000000037e-01 2.095827099999999987e+01 1.306136099999999978e+01 8.095919000000000310e+00 1.577747100000000025e+01 1.575256100000000004e+01 4.745699000000000112e+00 1.810537100000000166e+01 1.426066100000000070e+01 6.216229000000000227e+00 1.909457099999999841e+01 1.430036100000000054e+01 6.333428999999999753e+00 1.694457099999999983e+01 1.273636100000000049e+01 7.758009000000000377e+00 1.827247099999999946e+01 8.878951000000000704e+00 3.284378999999999937e+00 1.817487099999999955e+01 6.964811000000000085e+00 4.782238999999999685e+00 1.864577099999999987e+01 8.387250999999999124e+00 4.230519000000000140e+00 2.041317099999999840e+01 1.498676099999999956e+01 2.535569000000000184e+00 1.856447100000000106e+01 1.606476100000000073e+01 3.202818999999999861e+00 1.644747100000000017e+01 1.421556099999999923e+01 1.511549000000000031e+00 1.651077099999999831e+01 6.420391000000000403e+00 5.766488999999999976e+00 2.065617100000000050e+01 9.991260999999999726e+00 7.869189000000000433e+00 2.324717100000000158e+01 5.333291000000000004e+00 8.196089000000000624e+00 2.432187100000000157e+01 7.491951000000000249e+00 8.403888999999999498e+00 2.351577100000000087e+01 1.298470999999999931e+00 1.094571900000000042e+01 6.776701000000000086e+00 3.051731000000000193e+00 7.195338999999999707e+00 4.087920999999999694e+00 1.749341000000000035e+00 8.965149000000000257e+00 5.235031000000000212e+00 2.639371000000000134e+00 7.028659000000000212e+00 6.273990999999999651e+00 1.396690999999999905e+00 8.629369000000000511e+00 7.547680999999999862e+00 7.200290999999999997e+00 1.534771899999999967e+01 3.638300999999999785e+00 5.098080999999999641e+00 1.098101899999999986e+01 3.863020999999999816e+00 5.469151000000000096e+00 1.255971899999999941e+01 5.653420999999999808e+00 6.381130999999999887e+00 1.320321900000000070e+01 3.545530999999999988e+00 6.801530999999999771e+00 1.432121899999999926e+01 5.772480999999999973e+00 1.168686100000000039e+01 8.517409000000000674e+00 2.970110000000000250e-01 3.522299999999999737e-02 1.216011899999999990e+01 5.101181000000000409e+00 1.768026100000000156e+01 1.434361900000000034e+01 5.743790999999999869e+00 3.162079999999999891e-01 1.314311900000000044e+01 7.383360999999999841e+00 4.078020999999999674e+00 9.110908999999999480e+00 3.700350999999999946e+00 5.528061000000000114e+00 9.707019000000000730e+00 1.774601000000000095e+00 4.268621000000000443e+00 7.610238999999999976e+00 1.900250999999999912e+00 9.403461000000000070e+00 7.436678999999999817e+00 1.259247099999999975e+01 5.143321000000000254e+00 9.510218999999999312e+00 1.316487099999999977e+01 5.519740999999999786e+00 8.264829000000000647e+00 1.100227100000000036e+01 7.282790999999999570e+00 8.213098999999999705e+00 1.282297100000000079e+01 7.907780999999999949e+00 7.459628999999999621e+00 1.060077099999999994e+01 5.102010000000000156e-01 1.128181900000000049e+01 2.078537100000000137e+01 2.815331000000000028e+00 9.449818999999999747e+00 1.728237100000000126e+01 1.497441000000000022e+00 9.803518999999999650e+00 1.904897100000000165e+01 3.227320999999999884e+00 8.295899000000000356e+00 1.950717099999999959e+01 1.524370999999999921e+00 9.285719000000000278e+00 2.120987099999999970e+01 4.950731000000000215e+00 1.569321899999999914e+01 1.568527100000000019e+01 7.064751000000000225e+00 1.154061899999999952e+01 1.634507100000000079e+01 7.870980999999999561e+00 1.332041899999999934e+01 1.783087099999999836e+01 5.944950999999999652e+00 1.368491900000000072e+01 1.608317100000000011e+01 7.111850999999999701e+00 1.558051900000000067e+01 1.724027099999999990e+01 1.266676099999999927e+01 9.530419000000000196e+00 1.367997100000000010e+01 1.122796100000000052e+01 7.765869000000000355e+00 1.400447100000000056e+01 1.077936099999999975e+01 9.229288999999999632e+00 1.227997099999999975e+01 9.937209999999999654e-01 1.268731900000000046e+01 1.893397099999999966e+01 1.779706099999999935e+01 1.441881899999999916e+01 1.865677099999999911e+01 1.667490000000000083e-01 1.370321900000000070e+01 2.087347099999999855e+01 5.222711000000000325e+00 1.030071900000000085e+01 1.715277100000000132e+01 6.429761000000000060e+00 9.562319000000000457e+00 1.515927100000000038e+01 3.986670999999999854e+00 1.007121899999999926e+01 1.517307100000000020e+01 1.259016100000000016e+01 1.101451899999999995e+01 1.198437099999999944e+01 5.740361000000000047e+00 7.489908999999999928e+00 2.218437099999999873e+01 8.303981000000000279e+00 6.773549000000000042e+00 2.198247100000000032e+01 1.228566099999999928e+01 1.095891899999999985e+01 3.945009999999999906e-01 1.088156099999999959e+01 1.004791900000000027e+01 2.287747099999999989e+01 1.238106100000000076e+01 1.173111899999999963e+01 2.233117100000000121e+01 3.741340999999999806e+00 1.695761900000000111e+01 4.883210000000000051e-01 5.308601000000000347e+00 1.582441900000000068e+01 1.954180999999999946e+00 3.506950999999999929e+00 1.750761899999999827e+01 1.136087099999999950e+01 6.274211000000000205e+00 1.554091900000000059e+01 1.366367100000000079e+01 4.400910999999999795e+00 1.685611899999999963e+01 1.354467099999999924e+01 5.297540999999999833e+00 1.595961900000000000e+01 1.162687099999999951e+01 7.572790999999999606e+00 1.543711899999999915e+01 1.181357099999999960e+01 7.646380999999999872e+00 1.608001900000000006e+01 1.374530999999999947e+00 5.888821000000000083e+00 1.647741900000000115e+01 2.426957099999999912e+01 7.986660999999999788e+00 1.588131899999999952e+01 2.340237099999999870e+01 1.509716099999999983e+01 1.197421899999999972e+01 8.590851000000000681e+00 1.326246100000000006e+01 1.350821900000000042e+01 8.858610999999999791e+00 1.319126100000000079e+01 1.141451900000000030e+01 9.789671000000000234e+00 1.194586100000000073e+01 1.306231900000000046e+01 1.084297100000000036e+01 1.571936099999999925e+01 1.209351900000000057e+01 1.886157100000000142e+01 1.425176100000000012e+01 1.395881900000000009e+01 1.938847099999999912e+01 1.434356099999999934e+01 1.195471900000000076e+01 2.091837100000000049e+01 1.267306100000000058e+01 1.376341900000000074e+01 2.089557100000000034e+01 1.841966100000000139e+01 8.713990000000000347e-01 2.319987100000000169e+01 1.828546100000000152e+01 1.710951899999999881e+01 2.402487100000000098e+01 1.894930999999999921e+00 1.828731900000000010e+01 2.395117099999999866e+01 1.038056100000000015e+01 1.233498999999999901e+00 2.293687100000000001e+01 1.206696099999999916e+01 1.313668999999999976e+00 2.772609999999999797e-01 1.278506100000000067e+01 1.207079000000000013e+00 2.246027099999999876e+01 1.649496099999999998e+01 3.488280000000000269e-01 6.202931000000000417e+00 1.618886099999999928e+01 2.758258999999999794e+00 7.036300999999999917e+00 1.798956099999999836e+01 1.207198999999999911e+00 7.976321000000000438e+00 1.769106100000000126e+01 3.370788999999999813e+00 9.117590999999999113e+00 1.816886099999999971e+01 1.564419000000000004e+00 1.858667099999999905e+01 1.736146099999999848e+01 3.212708999999999815e+00 2.033587100000000092e+01 1.848666100000000156e+01 1.226768999999999998e+00 2.084437099999999887e+01 1.839236100000000107e+01 2.888168999999999986e+00 2.233217099999999888e+01