-1.057985274524357519e+05
-1.057853348951814551e+05
-1.057889238914707093e+05
-1.057918035187592031e+05
-1.057946041823944106e+05
-1.057897393831364607e+05
-1.057938422475652042e+05
-1.057925068390172091e+05
-1.057975949748098647e+05
-1.057933949767225859e+05
-1.057884983339098835e+05
-1.057893553179198061e+05
-1.057923333611227863e+05
-1.057902405061312311e+05
-1.057942864000653208e+05
-1.057867503503604821e+05
-1.057906146022720204e+05
-1.057861443935089046e+05
-1.057915971823005821e+05
-1.057876170257228077e+05
-1.057970281593735126e+05
-1.057926782698763709e+05
-1.057945654033116298e+05
-1.057894866999796359e+05
-1.057872969485477370e+05
-1.057941487958409998e+05
-1.057915860663395724e+05
-1.057889093808242760e+05
-1.057867002185130696e+05
-1.057885406459951919e+05
-1.057947047322083381e+05
-1.057885490907255735e+05
-1.057871483266173454e+05
-1.057890764048511628e+05
-1.057908464100292913e+05
-1.057889344683486561e+05
-1.057968126701383590e+05
-1.057893279300617141e+05
-1.057981162044097582e+05
-1.057961921343984723e+05
-1.057989636435206630e+05
-1.057940106284717476e+05
-1.057925285487005021e+05
-1.057832712677576055e+05
-1.057904131209421466e+05
