-2.325471984557408334e+00 -3.912633123379175015e-01 -3.046562608336577771e+00 -4.963119113232795643e-01 -1.620292891117438350e+00 3.168912161924349213e+00 9.646913555934188977e-01 3.819158089120709976e-01 -5.635118117633665102e-01 6.221278264796304969e-01 1.054469657421011064e+00 -1.239710456415028528e+00 2.711917049172793970e+00 -6.660186179533737760e-02 2.039654763786444835e+00 -2.358699381898585745e-01 -3.919797760040651724e+00 4.850299097189735842e-01 1.764206802922082540e+00 1.996553301048463069e+00 -1.676163995871816192e+00 7.146726355374490858e-01 -4.992429691694300620e-01 2.076592777516713451e+00 -8.162029366660809027e-01 -2.284187263463365092e+00 3.523491485545330870e-01 -1.716892844416439967e+00 3.165704967575850848e+00 3.250598172993191870e+00 -4.047938466867607055e+00 -9.040045742198831169e-01 -6.006056343580890022e-01 -7.203887125581175388e-01 -1.010143835256418043e+00 -1.797474309475891596e+00 3.379288581721469620e-01 2.434194690263953742e+00 -1.587337516513210645e+00 -3.166924184795714581e+00 1.419139533342871795e+00 -5.758093992003299189e-01 -3.205955590892945128e+00 -1.606908755394700072e-01 1.931573805482003969e+00 2.238517268454941256e+00 2.209053452232355497e+00 -1.772945469069009183e+00 2.393902929292878248e-02 -4.275475973243602290e+00 -1.620988117469718270e+00 1.976081661765462849e+00 3.096076402888857104e-01 -1.210278521874278645e+00 1.531633019257456096e+00 1.640857604342570442e-01 4.272685297641661828e-01 1.076150229510379530e+00 -3.419207532703341657e-02 1.116637394337864908e+00 -4.123610667145094055e+00 -3.209302653264979321e-01 -4.744067276431744418e+00 -9.619834695201154307e-02 2.252539037814385914e+00 -1.177055238298499340e+00 -1.287988064465177107e+00 1.389757992428248601e+00 6.270353943333685898e+00 -1.626002797490009533e+00 2.641525895225126375e-01 1.338706678058426913e+00 -1.362534121464932246e+00 -4.632932875760558122e-01 -2.050845748331317775e-01 1.484687756975619166e+00 5.447563325603213435e+00 6.129618943740428705e+00 -1.099890255402174999e+00 -1.098776967641312607e+00 -8.856175855523733542e-01 5.856898923555686309e+00 1.037298286428641525e+00 -4.010053772875099121e+00 1.265841094223798313e+00 -9.705488432996469683e-01 6.092476270181603759e-01 3.170691365459030298e+00 -2.432345552717504855e+00 -5.878565611686835446e+00 -3.177296015805689766e+00 -8.031489306165408015e-01 2.255913868102856767e+00 8.558287818633376620e-01 1.849101551001447741e-01 -2.124868328684163643e+00 1.620899157292984505e+00 1.378782980566776395e+00 -2.394144613010017464e-01 1.718718842032524341e+00 1.777784285618531357e-01 -3.406881663129266435e+00 7.898866651937215266e-01 -9.901411652288020226e-01 3.154907876067846839e+00 1.189519433234085710e+00 -6.602634601614233434e-01 -1.425420224664430302e+00 -2.018866878788465158e+00 1.407061518134032463e+00 2.833053041968124575e+00 -1.455521674523721831e+00 -4.692633896100573132e-01 -2.766609560140614654e+00 4.813306061847266726e-01 -2.234168504208468242e+00 -2.212280186966495213e-02 6.506063958893693044e-01 -3.056064892185527682e-01 -1.959747956252282597e+00 3.733316146558430582e+00 -2.698250092078935847e+00 1.393920608790457205e+00 -8.176972619469429215e-01 -6.949563864256762535e-01 1.938141431940080261e+00 -3.255942468466006823e-02 -3.936620489415531665e+00 -4.788990623020411341e+00 -1.763361938353446234e+00 1.818794927092925784e+00 -2.773059944284844480e+00 -4.890644851331660825e-01 -3.833391717398156873e-01 -1.333352098172117195e+00 1.657755409935966373e+00 3.979877761017966420e-01 -1.566095060438740527e-01 -3.236224162471534882e+00 -2.322241136057870414e-01 1.468354051462439136e+00 3.697917709528402597e+00 2.461642761441467098e+00 1.690073150903487198e+00 -2.612379353158869932e+00 7.325011805521660646e-01 3.717038491098799025e+00 1.187477462934600991e+00 6.442172040054359172e-01 -2.288730917345573435e+00 2.615268759130364717e+00 1.905718789954907066e+00 -1.565522732827729024e+00 2.799310909731508978e+00 -2.552707129176642109e+00 1.842347262438432498e+00 -5.916268271560477521e-01 1.207667309287830726e+00 1.160070529411068918e+00 3.253329198996860239e+00 -7.063690000813719339e-01 3.439254425708986762e+00 2.401905745654218993e+00 4.006586382865170437e-01 1.372662726095744024e+00 -2.032962695925075280e+00 1.852044950143792779e+00 -4.114069302524861804e+00 -2.430664565331703830e-01 -2.044103801064496295e+00 3.751941733619030384e+00 3.934353804681174904e-01 -3.824716814614900762e-01 -3.209989137865788322e+00 2.160726478997430089e+00 -5.931324652917545626e-01 -1.550605705273521595e+00 1.122823469055266976e+00 -8.308289153183722187e-01 -7.263984095840757549e-01 -2.255677326592465892e+00 1.438130217082553841e+00 -1.213475946029956676e+00 2.338106386536341397e+00 -2.222593911040221748e+00 -1.033046195669024003e+00 1.412504543976401461e+00 1.527125875043156444e+00 -1.892499719068767572e+00 -3.025500129498273960e+00 -1.552193104496515597e+00 1.511438544918153604e-01 1.671162171368393956e+00 2.487997599464433662e+00 1.042004434044074834e+00 5.487249848840092703e+00 -1.402506037176304565e-01 3.053526184714221436e+00 -3.736407641255107048e+00 3.448402411513025623e+00 3.790161699491484182e+00 7.089030795666052542e-01 -1.415884002250945572e+00 -2.176698173155576566e+00 1.222549369836154198e-01 -3.596775130788541830e+00 1.680783240193214345e+00 -4.227927530110267562e-01 2.320523639004161698e+00 1.700196099106876968e+00 -1.962276379310093466e+00 -1.288715172499292461e+00 4.405508497933011136e-01 -9.806661350756141760e-01 -1.481748985819347109e+00 -1.912610889658759028e+00 -3.997695507398513204e-01 3.330491096569135667e+00 -8.069392512102206982e-01 1.952926304780873368e+00 4.798311386971170212e-01 2.601975126246384828e+00 1.980093611469966097e+00 -3.958684670128273630e+00 -5.005902273373097344e-01 1.978093807265811632e-01 3.010931229340882087e+00 5.776096857826761299e-01 -2.613976522574684491e+00 -2.174825895678763388e+00 -7.267995017103910486e-03 2.906894616643453944e-01 1.893824865747632868e+00 1.050331209430516166e+00 -5.962769247179319221e-01 1.912553296943185765e+00 1.430426677153925352e+00 -9.702439104395124136e-01 -3.489628511450145520e+00 -4.858423269630320895e+00 1.312691225680804097e+00 6.730994366448638244e-01 -3.389130765436438431e+00 9.412038120529320206e-01 -1.388535175663661470e+00 2.145653642578769116e+00 4.516184213762308164e-01 -2.017052708247900394e+00 8.576995166781263558e-02 1.945092667021529831e+00 3.394293541011061954e-01 -7.668269532546378997e-01 -1.621560445080729718e+00 4.148187330074729062e-01 4.767165040700760414e-01 2.153391121071931646e+00 -1.650090950778619669e+00 -6.114291568087760531e+00 -4.251151792665274876e+00 1.849245018569707133e+00 -2.040411182399021861e+00 1.396258770198605559e+00 9.227165503538434788e-01 -3.538325209350226430e+00 -3.733175250093545006e-01 -2.636270559929045465e+00 2.959209371211168893e+00 1.263039105767013393e+00 -1.498097089511420732e+00 4.132853269553288245e-01 5.696968580394190518e-01 4.639326695630565212e+00 -1.647900884924803133e+00 -1.528073069526070249e+00 -1.852130310775803590e-01 -1.028626468969433772e+00 2.054828901678033670e+00 1.850554738628328977e+00 1.737235414310074333e+00 6.757142487760351424e-01 -2.589347923356898340e-01 -9.356841673300232420e-01 3.586689206473735181e-02 6.731277187819758590e-01 1.510391077403660853e+00 1.838315258127613872e+00 -6.084069276369898915e+00 8.180829274530152517e-01 -1.308859253212468321e+00 4.607717550752867375e+00 -1.568643538102867163e+00 1.386817678609952198e+00 -3.969881311100568744e-01 2.647202891474512154e-01 3.970282403226884083e-01 3.338136015340840590e+00 6.421947740915918967e-02 2.664313584427260295e+00 8.645972728094007964e-01 -8.830315697789888896e-01 -1.715836120929801423e+00 -1.020938869881723027e-01 -1.327910614991772320e+00 -2.131691008596922288e+00 2.864207101548656542e+00 2.052119472942705691e+00 1.122668174411488362e+00 -3.322750018531249183e-01 2.012294624344315719e-01 -1.937997450151146328e+00 -4.028713298500233297e-02 8.211260854062644166e-01 3.190878126488211342e-01 -1.832600723768969875e+00 -4.828321305550353770e+00 1.112691264879731579e-01 2.955035956214789872e-01 -2.007565851019193381e+00 -1.415745676889434312e+00 -4.118519882464937609e+00 5.017689239680022339e+00 -4.589450375502577284e-01 -1.989869460717890393e+00 8.014304051214820035e-01 4.541298751517745536e-01 2.045899459660769804e+00 -1.220919290297154819e-01 2.497376984572114988e+00 -2.287146089225953194e+00 -2.583256979464327419e+00 2.876928406821625206e+00 -2.533032017718850337e+00 1.281785534686182615e+00 -1.946937176581905460e-01 -1.207044073830017883e+00 3.440470557604802249e-01 1.724945025962557832e+00 -1.051591050083686252e+00 -5.457089263603203122e+00 -1.964047869534653046e+00 2.930970428635869762e+00 5.410748210614213516e-01 1.601200905904828220e-01 -1.166088453967822902e+00 -2.454155194196239176e+00 -1.101617008428029898e+00 1.253533222373339751e+00 3.645171523814560444e-01 3.279662953972161343e+00 8.662381509825702874e-01 1.580786859337401484e+00 -3.171704380188313799e+00 1.429879546355977249e+00 -6.981430119471841778e+00 1.471225459710316930e+00 7.805664154636374197e-02 2.407728780575238314e+00 -6.457017590934773787e-01 4.040564028170827271e+00 -1.596752382847451024e+00 -9.041670679531084165e-01 1.078170602541524303e+00 -2.291797215229186779e+00 -2.055878426075225640e+00 -1.000007517315484762e+00 1.530041506269063989e+00 -2.174498851329614624e+00 1.089919002297840667e+00 9.096702576144247709e-01 2.560658009249831668e+00 -2.869341594986167365e+00 1.112952488982511312e+00 -8.251298075799711196e-01 -8.408356496492651599e-01 -9.943680591753560893e-01 1.622682988813737959e+00 1.442236269170538376e+00 -3.023742009011258780e+00 -3.224049987996514766e+00 -1.260101363052090750e+00 4.225179020603658131e+00 2.546599730222478986e+00 3.688659166279289331e-02 -3.772326983828669711e+00 -1.817653871415626066e+00 -4.374084472498229181e-01 4.835253000246163002e-01 1.671695418208123174e+00 -4.410290750208309962e-01 -6.907685732504041942e-01 -1.920249123561692528e-01 3.141836900736039162e-02 -1.811013225621733280e+00 2.768940522459315989e+00 -2.240617345690674167e+00 -2.962917416496886780e+00 -2.984878753074675650e+00 4.676228713913601176e+00 4.851517800188924756e-01 -3.232288317426896818e+00 2.242371352412291685e+00 2.174959593054202056e+00 -8.539945567164570761e-01 3.131655331375727269e-01 -8.198009387273993420e-01 4.372158201850565362e+00 -4.549006919432447282e-01 -1.668484110094226702e+00 1.672224037061780022e+00 -9.903545668088288290e-01 -3.375015407914186971e-01 1.568376657572664978e+00 3.135311440373293457e-01 2.786126291630579122e+00 -5.100811983314152559e-02 2.819487386347195312e-01 -2.165972558321364705e+00 6.963679221779013329e-01 3.302663530533647140e+00 3.255413335391675655e+00 -1.494179242190399215e+00 -6.340145515974580093e-01 -1.876740912269973194e+00 -2.234101655520748686e+00 1.867307019770766408e+00 2.006288526863080790e+00 1.775059430262960980e+00 -8.174463222576583421e-01 1.736920197036444513e+00 1.017595921275087134e+00 -7.685665617973619357e-01 -1.272744506782495177e+00 1.377005833914794586e+00 -2.667857593317728426e+00 -1.866014268994411474e-01 5.506465247014645792e-01 8.596391570633334922e-01 -2.516741506742349976e+00 -1.437012815556293122e+00 -1.724988734719912875e+00 -1.355565402880540393e+00 2.451010220549386887e+00 9.115343075604415146e-01 3.864818828156988406e+00 -9.725249933527622959e-02 9.841335250855426375e-01 1.282739414037868508e+00 5.243564784835181847e-01 2.732230822708641593e+00 1.101863320131241553e+00 -3.766857732731887953e+00 1.109780261639896626e+00 -6.784478458830766057e-01 1.798428703048251753e+00 -3.061698179677559306e+00 -1.122823983275941462e+00 4.275359245150430754e-01 -1.239994820448172774e+00 2.681861879174230801e+00 -1.406191456752332813e+00 1.082581587489643615e+00 -2.451640140875972040e+00 -7.236082482028102225e-01 -1.552452785937270985e+00 2.022311643088704480e-01 -1.326535074686780780e+00 3.145595853868558556e-01 -2.513407814107860183e+00 5.294950856864274469e-01 1.199877380285842010e-01 1.915971321768337177e+00 -9.824185991352074251e-03 1.449238412098789730e-01 -1.173580134978448930e+00 1.749302630884743914e+00 4.297018219971459052e-01 -4.631307938428306792e-01 1.648178049868500361e+00 1.454488605188122563e-01 2.444363404107397220e-01 2.231202993577108717e+00 1.020672503572195522e+00 9.104421028472444721e-01 1.465507840027624464e+00 -1.021398068944286752e+00 1.546904344856575575e+00 2.769117414371434549e+00 -3.368412814450226778e-01 1.452884236682860930e-01 -3.779737932193358296e-01 -7.413498899234922668e-01 2.732594376725699270e+00 1.537781555865600502e+00 -3.670041806749486213e+00 -1.129985020392694661e+00 5.934836780126178102e-01 2.185674409254244333e-01 1.217869961695808578e-01 -2.482647647564196536e+00 5.557013139343873753e-01 1.158909419127453155e+00 2.615953701069149151e-01 5.256456297151497203e-01 6.887415153504874432e-01 -1.481263561502370818e+00 1.612956504750590936e+00 -5.667601437658460473e-01 -3.115488233361169979e-01 1.493290154643733603e+00 7.512578938848307741e-01 -2.365196045903545041e+00 4.351052528475582437e-01 2.363749028924760909e-01 3.702105522703674101e+00 -1.093730405939185912e+00 4.755576563574295257e+00 -7.351735853989107561e-01 -7.907628972235181131e-01 -8.913953690540132868e-01 1.794345276669957023e+00 -5.259788447123961985e-01 5.929350045526454727e-01 -1.581859009444283037e+00 -1.543829305221491088e+00 3.120042685877548294e+00 -2.644996884779777790e-01 1.311267348632384699e+00 -1.854151198027623071e+00 8.587048180972884914e-01 -5.102082108380817660e-01 8.567533506365619667e-02 -1.589290526635961376e+00 2.206362535441319661e+00 -2.871361968017312805e+00 3.363836764665508738e+00 -2.038628893540292086e+00 -4.001186551559481330e+00 7.953518025251055112e-01 2.524206448277888440e-02 -3.359691631806241974e-01 1.297073315346894518e+00 4.730979331817669609e-01 5.818890302380559376e-01 -7.632515769030089325e-01 -3.739839035817801971e+00 -6.177817876027338784e+00 -3.276317434262151274e+00 -1.462566497767978646e+00 -4.122647531821262312e+00 -1.726183783568062458e+00 -3.974205906975327579e-02 5.042869597681829408e-01 5.365954447635585822e-01 1.635461372581604955e+00 9.515705008561593514e-01 1.869641067413516655e+00 1.189017039634842066e+00 2.703786191863437161e+00 1.472328977278359208e+00 -3.382559025212963921e-01 3.166591484019142810e-01 1.128287577945301212e+00 -1.033633435679603751e+00 1.261848684904936402e+00 3.264179769455039626e+00 1.466188668201011014e+00 -7.542187765301174851e-01 -5.029547168440062777e+00 -1.804456912018501669e+00 2.234184959270060222e+00 -2.642065312712952974e+00 8.507523953620748092e-01 -1.920452240728224069e+00 1.420748015613531257e+00 3.187921357608323181e-01 1.883291569445782354e+00 -2.085876517578889366e+00 -9.220686323036416665e-01 3.566860343034189196e+00 7.444074460556345807e-01 1.856810233136823918e+00 -1.035763337714473042e+00 2.735612852086559688e-01 -1.064061929888044711e+00 -2.349749371054331348e+00 -1.283907723410930624e+00 -8.859888528795523133e-01 -4.581402821942531789e-01 1.006662047067595989e+00 -4.518781028169862046e-01 -8.263335981795918439e-01 -4.263825275415490945e-01 9.293489686169398301e-01 3.673380127370049042e+00 1.363963654940774095e+00 -1.384256859649631410e+00 -1.250980630943814842e-01 4.066112568175765385e-01 1.952014591524517728e+00 3.143319913162057055e+00 4.014867906832232158e+00 -1.017902396797246256e+00 -1.235672281456112742e+00 -9.845752406451645511e-01 -7.396858718199582350e-02 -1.462731562604577595e+00 1.516820892720900593e+00 -2.208798912998347852e+00 3.583435732264508289e+00 -5.039290621785477153e-01 5.886040837635868606e+00 6.817534620687246694e+00 -8.842333034959104499e-01 1.624737814630091925e+00 -7.624951582904322400e-01 1.249448253333020453e+00 1.252981463589318833e+00 3.022933654110531165e-01 1.771288135834247379e+00 -2.048037075005760599e+00 4.372999981095152755e+00 2.144621601684518986e+00 4.539966919970108705e-01 -7.675180658415197144e-01 -1.193803919896213372e+00 -8.571575280869258018e-01 1.119727346372517252e+00 -1.041931928928933049e+00 -7.965293678703133651e-01 -1.741348151266830957e+00 -1.313182306425203061e+00 -7.815892003857415338e-01 -6.693775074009273851e-01 -5.410105434770757782e-01 -1.740117621192122654e-01 -8.792489624954303862e-01 -5.141774802265793864e-01 -6.263063836827567066e-01 2.293512141179522068e+00 -5.003682382720145760e+00 -2.126878417301812929e-01 -6.884730921582610241e-01 4.963504778738866974e-01 3.375262233838073334e-01 4.522133746969319024e-01 -1.302059199009399038e+00 -3.387171584665590873e-02 8.708018594710942306e-01 -3.963042176126217453e-01 -1.408974933264826590e-01 -1.789731174555306170e+00 3.075677268720998225e-01 1.338135893109439756e-01 -3.053951445212250704e-01 -1.890892779460132900e+00 1.624218965969256079e+00 -4.956322144353774384e+00 -1.357614572269471909e+00 -1.057797179407403920e+00 -5.606301191019933405e-01 4.011800580507269287e-01 -1.147704550624361886e-01 8.559305975569408975e-02 -6.241507706141492529e-01 -3.010108990481935032e-01 -1.266501353570194333e+00 -5.141728522405065727e-01 3.887791122581362169e-01 1.946091797792594669e+00 1.629018187526821038e+00 1.467416112951670959e+00 6.759687880100427870e-01 8.086778313115952077e-01 1.331764698949122971e+00 -3.920219935214632301e+00 3.088918451096152595e-01 -1.101776931057881326e+00 6.623846204448218256e-01 -2.443065511124294709e+00 2.572756079064987045e+00 4.281303636150693426e-01 1.752578216582985959e+00 -2.132607349839350519e+00 1.547665391455224915e-01 -4.992727939685663863e+00 6.589593965302237066e+00 -3.978642088736510374e+00 -7.853728361106496747e-01 7.652894334370957674e-01 -1.181567010498872028e+00 -2.071779672000929828e+00 1.066417060578460640e+00 -2.440321629603757481e-01 2.032796088426452208e+00 -3.302063435006198588e+00 5.154788184882027835e+00 9.576177359913752296e-01 -6.541144093326044240e-02 -3.354728888074101523e+00 7.380902450661679381e-01 -1.651027860848038209e+00 -1.273817685330725924e+00 -9.162949625673998122e-02 -1.817375678030578978e+00 8.571955804168583659e-02 -2.299214334241972135e-01 -1.565734077525056334e+00 7.701688734199243491e-01 -1.896597029405281853e+00 9.121811971692938004e-01 1.452856468766424047e+00 -3.029613380675705514e+00 3.223784135907662218e+00 -3.254639947496831276e+00 -3.574774713439470730e+00 8.410377383744472857e-01 1.469069332421034879e+00 2.532262743589404064e+00 -1.059749675309480166e+00 -3.021583310618602525e+00 1.045073303031062162e+00 -2.516821210946938780e+00 -1.507914076413326310e+00 -4.187715473343780470e-01 1.426047059666966377e-01 2.709068780855279912e-01 3.096459497291555785e+00 -6.052747580849394682e-01 -4.023026017837351809e+00 -2.738278057843857471e+00 -1.604899695218400257e+00 2.691471120923532023e+00 -1.629331862138426734e+00 -2.572507196258401740e-01 2.129173384173281391e+00 -4.890804259740837850e-02 -4.592725961200819218e-01 -3.303271339371216975e+00 -1.987771440364856021e-02 -2.359374039423875136e+00 7.205959434900471861e-01 1.450549674819435975e+00 9.556138180218229916e-01 5.796017766767089796e-01 9.405584651061043022e-01 1.373583695324245291e+00 -1.079529687784923642e+00 3.669154776085519210e-01 -1.115618208960484026e+00 2.399093987004613737e+00 1.668354012263511654e+00 -1.969849307187332199e+00 2.449551890715758073e+00 -1.988727376599241259e+00 -4.032929908033292543e-01 1.595614412494199996e+00 5.492838399133419536e-01 -2.756632136388182719e+00 9.051106628912988783e-02 -8.082078336148618147e-01 2.613288495311850923e+00 -1.187179214943238303e+00 8.362585714231974832e-01 -1.561189909422173727e+00 -2.961218945608143915e+00 -1.989275535838538556e+00 2.406900885288869141e+00 -2.649670636492701181e+00 2.626546646969272203e-01 1.429422404176112549e+00 1.946701149292189292e+00 1.382217974674194938e+00 1.970470485762446433e+00 2.066854466378047483e+00 -2.598629606536375092e-01 -6.321906108640726885e-01 -1.213536109848903699e+00 -1.910353460896548450e+00 3.095233080982245366e-01 4.174746827926251180e-01 3.177674482222315522e+00 -2.033957198710067971e+00 3.956496146936481217e-01 7.385309321844401031e-01 -2.003758561143246020e+00 -1.751411449871947967e+00 1.492978536914827181e+00 2.037686841264125803e+00 -2.185711433142827342e+00 3.029798500118620619e-01 -1.888578272203023101e-02 3.924419061244749374e-01 -4.047083317885475928e+00 1.370472146021252557e+00 -5.557491364571404135e-02 -2.385542215341902583e+00 -4.062862693511261059e-01 -1.034293180805325035e-01 -1.275115578313828602e+00 -2.739906594720833422e-01 -4.891699003714926053e-01 3.067722274882410671e-01 -1.348263469298902173e+00 4.581644505659671074e-01 -1.289980669579884998e+00 1.004697209869325425e+00 8.022791263451786392e+00 -1.556391716305957740e+00 8.715022280301218949e-01 -2.085355612035354245e+00 7.324147914788057268e-01 4.371904176837232425e-02 -1.817965489144532376e-01 -2.355967327453568405e+00 8.296122692018823575e-01 1.954293617555068696e+00 5.933216985000674404e-01 1.108027283359628717e-01 -4.747583517405775111e-01 1.067504637305584980e+00 -2.839963653616268124e-01 2.298741765441864260e+00 -2.149785919921166855e+00 -1.991392582356538821e+00 8.598417600091902147e-01 -5.506141287989544386e-01 -9.813330792907819511e-01 9.399439713997620460e-02 -2.691878383697944299e-01 1.998423007421902042e+00 4.427182899374283442e-01 2.611299489741866431e+00 7.057092549556506222e-01 1.376484928371259242e+00 -2.843769400830190808e+00 -3.350157980496130672e-01 -4.805001397949840158e-01 -1.725572375185769225e+00 3.526890484205515430e-01 1.679686921714619086e+00 3.150319999207609190e+00 1.732352889003197227e-01 3.244927861612577624e-01 -1.840955781292523241e+00 2.821049588757126081e+00 -1.790485536285184032e-01 -1.343639596991430984e+00 -1.854240158204357058e+00 -9.442814227913902680e-01 -8.760263415266889356e-03 6.666757919757211326e-01 -4.662515991179688180e-01 2.499246176724879975e-01 -3.187223045931994125e+00 5.237205417750384839e+00 -4.404865722089557761e-02 1.283688151182806880e+00 -3.106170554734459799e-01 -1.331284416838894202e+00 3.326633413067061618e+00 -3.071546019819950679e+00 1.484344771785552242e+00 4.179278140512264983e+00 1.116608083759403236e+00 -1.436414262690868693e+00 -3.343330158376625061e+00 1.455626061320698827e+00 -2.777112517422653415e+00 -2.300533824493414148e+00 1.652153489905095363e+00 7.882894957779068568e-01 6.517921887653734814e-01 -1.488390660054589532e+00 1.840516636836275310e+00 3.153966852233030416e+00 2.498670763789820004e+00 1.085211312020383095e-01 9.644023635742017264e-01 9.063273090077887950e-01 4.988130806853280363e-01 -1.004637046050378180e+00 -3.616243011314404399e+00 1.049936802172972694e+00 -2.178132848838165714e+00 -6.031057752787880588e-01 1.087760303905184411e+00 2.385307216493536053e+00 1.235415171118731115e+00 -2.133301033529605983e-01 -2.234509946736510655e-01 1.818709566460914973e+00 1.990831053379697457e-01 -1.713074755906322799e-02 1.843684750413491447e+00 -3.484129949774902535e+00 -2.148003116841762150e+00 -2.065563258263716673e+00 -4.335728752367637995e-01 -8.463979746881794552e-01 5.619089859201295001e-01 1.803144106635830912e+00 -5.167506404830948114e-02 2.101625039964189590e+00 -3.197140820086153301e+00 2.133799313363451855e+00 -5.075800289693668255e-01 -1.719490687265344153e+00 3.495589871732676102e-01 -2.707731807100895519e-02 -4.334571755849420116e-02 -4.249715060099986674e-01 9.430550064820799605e-01 3.747690157080087570e+00 8.449992944528232908e-01 4.467806332680580167e-02 -3.384306861286484391e+00 3.564396711781398608e+00 -4.142299503348689793e-01 -1.443153638854315801e+00 1.448929879693931777e-01 2.801800766238712548e+00 1.295689547511106543e+00 -1.930625582557740083e+00 8.574316077065747832e-01 2.499026604496755954e+00 1.283883040818541987e+00 -5.672291130212302468e-01 1.347383123503707480e+00 -8.052541500590215673e-02 2.082110365356923953e-01 -1.911713574581297204e+00 3.836934697847275699e-01 -1.448971531568587379e+00 3.456749755726457707e+00 -3.336857662743379915e+00 1.773710115212381977e+00 -2.542632517716679974e+00 -8.675622692200857244e-01 -2.780221495622272609e+00 4.564580606788327444e+00 -2.674460186781689064e+00 7.507488154168151517e+00 1.491104716775989880e+00 -1.296643941083467144e+00 3.109052761616507787e+00 1.948443843158961908e+00 4.463172175959614130e+00 -9.287684134751321707e-01 -7.689059474427057950e-01 1.215315827604259491e+00 -2.279057912232601346e+00 1.485836525963040389e+00 -8.255823217737627839e-01 -9.985687278674970635e-01 -6.322152934564614357e-01 -1.428900470191228012e+00 -1.087246597451095864e+00 8.112530484508096995e-01 -4.789595346533933040e-01 8.069202250452543745e-02 5.746158930142044458e-02 1.239426092381884503e-02 1.011671584881139729e+00 6.179641816760723660e-01 -1.354528219779542964e+00 -1.122430604459747766e-01 -1.754173843336776173e+00 -1.323707375196257363e+00 2.269970604468185549e+00 2.719998027076698577e+00 -1.599073060752657538e+00 -1.388104258738209973e+00 -3.350621293324092420e+00 -8.401702480961216191e-01 -1.487948430274293132e+00 -2.119566199306679721e-01 7.814236213284678767e-01 -3.174771192292602073e+00 1.029852371058069593e+00 -5.619172134509256011e-01 2.703265286319902039e+00 3.928913349942179667e-01 1.290025406778589068e-01 1.373011881933908329e+00 -1.345053703847030047e+00 1.091988740513762712e+00 -1.317128950104011098e+00 8.252614480727104018e-01 1.477734979232145252e+00 6.754653659694496159e-01 -2.340089735678903549e-01 6.887800819010946318e-01 2.342936975555067303e+00 -1.844396431827363958e-01 2.549583238577455280e-01 3.569634049353862526e+00 -3.301674684176076902e+00 2.129677834655224089e+00 2.610597064300140158e+00 -2.418621002908073692e+00 8.849537266612539366e-01 -1.651309653777808695e+00 1.850762483780933110e+00 1.110751624494524581e+00 1.638411970813396845e+00 1.692340349858518556e+00 8.768825189501697759e-01 -1.759997906699145132e+00 2.766296399749683221e+00 8.388800684231406679e-01 -4.920839375133085447e+00 -1.870523984312085553e+00 -1.450877233389260113e+00 2.605671344456582883e+00 3.297455503539644450e+00 -1.448352409876172420e+00 -2.159017723695191737e+00 -1.038364265887425697e+00 7.464874686850518914e-01 1.202847518903274793e+00 -2.763139084806636725e-01 -3.257923760725869311e+00 1.642224402896091506e+00 -1.401517705039409645e+00 1.578777799161101392e+00 8.303398914566723077e-01 -2.511222890460790946e+00 -1.321523994211212694e+00 -6.573452578321418160e-01 -2.137075413282368552e-01 -1.985349460986721160e-01 -2.178949945490364914e+00 2.389835443755500832e-01 1.875547920304522220e-01 -2.007658924961325031e+00 -1.895194749625202180e+00 -3.075279776139406618e+00 3.284520796686649646e+00 1.349298595517200772e+00 -3.089261950506894117e+00 1.273890704666542417e+00 1.597565879954926604e+00 2.817781716369005540e+00 1.275968156192585967e+00 -2.387996590622547544e+00 2.743922658190733888e-01 -1.173131734550055594e+00 -9.854802690327477688e-01 1.382451430860537345e-01 1.970036997733620510e+00 -2.815737689186821768e+00 1.070879467594056056e+00 5.053657947438362080e-02 -1.605726047842744864e-01 1.393183216342846586e+00 1.010359807939818388e+00 7.839520443862787458e-01 8.169213029487251143e-01 7.204930993550944240e-01 1.819710754114679085e+00 -2.775084945302062067e+00 4.737227113016043711e-01 -1.596067955129341076e+00 6.377791611573998543e-01 -3.467487711856863664e-01 -1.197067164298261099e+00 -1.575397826665882572e+00 -1.941993459014731860e+00 -1.998526879998204331e+00 3.064282138568245051e-01 1.617673965220869148e+00 -1.150020600543495641e+00 -6.166914855060332545e-01 -4.063406224764485764e+00 9.452810677831300357e-01 -2.916916263373915186e+00 -2.746458280337991553e+00 1.481840002878780094e-01 3.702178027818815664e+00 1.593659345488749990e+00