1.725000000000000000e+01 0.000000000000000000e+00 0.000000000000000000e+00 0.000000000000000000e+00 1.723999999999999844e+01 0.000000000000000000e+00 0.000000000000000000e+00 0.000000000000000000e+00 2.263899999999999935e+01
1.768199999999999861e+01 0.000000000000000000e+00 0.000000000000000000e+00 0.000000000000000000e+00 1.767299999999999827e+01 0.000000000000000000e+00 0.000000000000000000e+00 0.000000000000000000e+00 2.320599999999999952e+01
1.676999999999999957e+01 0.000000000000000000e+00 0.000000000000000000e+00 0.000000000000000000e+00 1.676000000000000156e+01 0.000000000000000000e+00 0.000000000000000000e+00 0.000000000000000000e+00 2.200799999999999912e+01
1.598300000000000054e+01 0.000000000000000000e+00 0.000000000000000000e+00 0.000000000000000000e+00 1.597400000000000020e+01 0.000000000000000000e+00 0.000000000000000000e+00 0.000000000000000000e+00 2.097599999999999909e+01
1.726099999999999923e+01 0.000000000000000000e+00 0.000000000000000000e+00 0.000000000000000000e+00 1.725100000000000122e+01 0.000000000000000000e+00 0.000000000000000000e+00 0.000000000000000000e+00 2.265299999999999869e+01
1.602499999999999858e+01 0.000000000000000000e+00 0.000000000000000000e+00 0.000000000000000000e+00 1.601599999999999824e+01 0.000000000000000000e+00 0.000000000000000000e+00 0.000000000000000000e+00 2.103099999999999881e+01
1.533399999999999963e+01 0.000000000000000000e+00 0.000000000000000000e+00 0.000000000000000000e+00 1.532499999999999929e+01 0.000000000000000000e+00 0.000000000000000000e+00 0.000000000000000000e+00 2.012399999999999878e+01
1.541799999999999926e+01 0.000000000000000000e+00 0.000000000000000000e+00 0.000000000000000000e+00 1.540900000000000070e+01 0.000000000000000000e+00 0.000000000000000000e+00 0.000000000000000000e+00 2.023400000000000176e+01
1.750300000000000011e+01 0.000000000000000000e+00 0.000000000000000000e+00 0.000000000000000000e+00 1.749299999999999855e+01 0.000000000000000000e+00 0.000000000000000000e+00 0.000000000000000000e+00 2.297100000000000009e+01
1.794500000000000028e+01 0.000000000000000000e+00 0.000000000000000000e+00 0.000000000000000000e+00 1.793499999999999872e+01 0.000000000000000000e+00 0.000000000000000000e+00 0.000000000000000000e+00 2.355199999999999960e+01
1.824500000000000099e+01 0.000000000000000000e+00 0.000000000000000000e+00 0.000000000000000000e+00 1.823499999999999943e+01 0.000000000000000000e+00 0.000000000000000000e+00 0.000000000000000000e+00 2.394500000000000028e+01
1.593999999999999950e+01 0.000000000000000000e+00 0.000000000000000000e+00 0.000000000000000000e+00 1.593099999999999916e+01 0.000000000000000000e+00 0.000000000000000000e+00 0.000000000000000000e+00 2.092000000000000171e+01
1.717500000000000071e+01 0.000000000000000000e+00 0.000000000000000000e+00 0.000000000000000000e+00 1.716499999999999915e+01 0.000000000000000000e+00 0.000000000000000000e+00 0.000000000000000000e+00 2.253999999999999915e+01
1.656700000000000017e+01 0.000000000000000000e+00 0.000000000000000000e+00 0.000000000000000000e+00 1.655799999999999983e+01 0.000000000000000000e+00 0.000000000000000000e+00 0.000000000000000000e+00 2.174299999999999855e+01
1.625199999999999889e+01 0.000000000000000000e+00 0.000000000000000000e+00 0.000000000000000000e+00 1.624299999999999855e+01 0.000000000000000000e+00 0.000000000000000000e+00 0.000000000000000000e+00 2.132999999999999829e+01
1.597199999999999953e+01 0.000000000000000000e+00 0.000000000000000000e+00 0.000000000000000000e+00 1.596299999999999919e+01 0.000000000000000000e+00 0.000000000000000000e+00 0.000000000000000000e+00 2.096199999999999974e+01
1.623100000000000165e+01 0.000000000000000000e+00 0.000000000000000000e+00 0.000000000000000000e+00 1.622100000000000009e+01 0.000000000000000000e+00 0.000000000000000000e+00 0.000000000000000000e+00 2.130099999999999838e+01
1.712199999999999989e+01 0.000000000000000000e+00 0.000000000000000000e+00 0.000000000000000000e+00 1.711299999999999955e+01 0.000000000000000000e+00 0.000000000000000000e+00 0.000000000000000000e+00 2.247100000000000009e+01
1.668400000000000105e+01 0.000000000000000000e+00 0.000000000000000000e+00 0.000000000000000000e+00 1.667500000000000071e+01 0.000000000000000000e+00 0.000000000000000000e+00 0.000000000000000000e+00 2.189600000000000080e+01
1.585899999999999999e+01 0.000000000000000000e+00 0.000000000000000000e+00 0.000000000000000000e+00 1.584999999999999964e+01 0.000000000000000000e+00 0.000000000000000000e+00 0.000000000000000000e+00 2.081299999999999883e+01
1.608299999999999841e+01 0.000000000000000000e+00 0.000000000000000000e+00 0.000000000000000000e+00 1.607400000000000162e+01 0.000000000000000000e+00 0.000000000000000000e+00 0.000000000000000000e+00 2.110800000000000054e+01
1.613700000000000045e+01 0.000000000000000000e+00 0.000000000000000000e+00 0.000000000000000000e+00 1.612800000000000011e+01 0.000000000000000000e+00 0.000000000000000000e+00 0.000000000000000000e+00 2.117899999999999849e+01
1.546499999999999986e+01 0.000000000000000000e+00 0.000000000000000000e+00 0.000000000000000000e+00 1.545700000000000074e+01 0.000000000000000000e+00 0.000000000000000000e+00 0.000000000000000000e+00 2.029700000000000060e+01
1.611299999999999955e+01 0.000000000000000000e+00 0.000000000000000000e+00 0.000000000000000000e+00 1.610399999999999920e+01 0.000000000000000000e+00 0.000000000000000000e+00 0.000000000000000000e+00 2.114600000000000080e+01
1.597499999999999964e+01 0.000000000000000000e+00 0.000000000000000000e+00 0.000000000000000000e+00 1.596599999999999930e+01 0.000000000000000000e+00 0.000000000000000000e+00 0.000000000000000000e+00 2.096600000000000108e+01
1.682900000000000063e+01 0.000000000000000000e+00 0.000000000000000000e+00 0.000000000000000000e+00 1.681899999999999906e+01 0.000000000000000000e+00 0.000000000000000000e+00 0.000000000000000000e+00 2.208599999999999852e+01
1.692299999999999827e+01 0.000000000000000000e+00 0.000000000000000000e+00 0.000000000000000000e+00 1.691300000000000026e+01 0.000000000000000000e+00 0.000000000000000000e+00 0.000000000000000000e+00 2.220899999999999963e+01
1.712900000000000134e+01 0.000000000000000000e+00 0.000000000000000000e+00 0.000000000000000000e+00 1.711899999999999977e+01 0.000000000000000000e+00 0.000000000000000000e+00 0.000000000000000000e+00 2.248000000000000043e+01
1.538499999999999979e+01 0.000000000000000000e+00 0.000000000000000000e+00 0.000000000000000000e+00 1.537700000000000067e+01 0.000000000000000000e+00 0.000000000000000000e+00 0.000000000000000000e+00 2.019200000000000017e+01
1.736899999999999977e+01 0.000000000000000000e+00 0.000000000000000000e+00 0.000000000000000000e+00 1.735900000000000176e+01 0.000000000000000000e+00 0.000000000000000000e+00 0.000000000000000000e+00 2.279500000000000171e+01
1.590300000000000047e+01 0.000000000000000000e+00 0.000000000000000000e+00 0.000000000000000000e+00 1.589400000000000013e+01 0.000000000000000000e+00 0.000000000000000000e+00 0.000000000000000000e+00 2.087000000000000099e+01
1.560100000000000087e+01 0.000000000000000000e+00 0.000000000000000000e+00 0.000000000000000000e+00 1.559200000000000053e+01 0.000000000000000000e+00 0.000000000000000000e+00 0.000000000000000000e+00 2.047500000000000142e+01
1.599699999999999989e+01 0.000000000000000000e+00 0.000000000000000000e+00 0.000000000000000000e+00 1.598799999999999955e+01 0.000000000000000000e+00 0.000000000000000000e+00 0.000000000000000000e+00 2.099500000000000099e+01
1.728500000000000014e+01 0.000000000000000000e+00 0.000000000000000000e+00 0.000000000000000000e+00 1.727499999999999858e+01 0.000000000000000000e+00 0.000000000000000000e+00 0.000000000000000000e+00 2.268499999999999872e+01
1.630600000000000094e+01 0.000000000000000000e+00 0.000000000000000000e+00 0.000000000000000000e+00 1.629700000000000060e+01 0.000000000000000000e+00 0.000000000000000000e+00 0.000000000000000000e+00 2.139999999999999858e+01
1.603500000000000014e+01 0.000000000000000000e+00 0.000000000000000000e+00 0.000000000000000000e+00 1.602599999999999980e+01 0.000000000000000000e+00 0.000000000000000000e+00 0.000000000000000000e+00 2.104400000000000048e+01
1.771600000000000108e+01 0.000000000000000000e+00 0.000000000000000000e+00 0.000000000000000000e+00 1.770599999999999952e+01 0.000000000000000000e+00 0.000000000000000000e+00 0.000000000000000000e+00 2.325100000000000122e+01
1.616199999999999903e+01 0.000000000000000000e+00 0.000000000000000000e+00 0.000000000000000000e+00 1.615299999999999869e+01 0.000000000000000000e+00 0.000000000000000000e+00 0.000000000000000000e+00 2.121099999999999852e+01
1.566699999999999982e+01 0.000000000000000000e+00 0.000000000000000000e+00 0.000000000000000000e+00 1.565799999999999947e+01 0.000000000000000000e+00 0.000000000000000000e+00 0.000000000000000000e+00 2.056099999999999994e+01
1.684400000000000119e+01 0.000000000000000000e+00 0.000000000000000000e+00 0.000000000000000000e+00 1.683399999999999963e+01 0.000000000000000000e+00 0.000000000000000000e+00 0.000000000000000000e+00 2.210600000000000165e+01
1.783999999999999986e+01 0.000000000000000000e+00 0.000000000000000000e+00 0.000000000000000000e+00 1.782999999999999829e+01 0.000000000000000000e+00 0.000000000000000000e+00 0.000000000000000000e+00 2.341300000000000026e+01
1.593900000000000006e+01 0.000000000000000000e+00 0.000000000000000000e+00 0.000000000000000000e+00 1.592999999999999972e+01 0.000000000000000000e+00 0.000000000000000000e+00 0.000000000000000000e+00 2.091799999999999926e+01
1.548399999999999999e+01 0.000000000000000000e+00 0.000000000000000000e+00 0.000000000000000000e+00 1.547499999999999964e+01 0.000000000000000000e+00 0.000000000000000000e+00 0.000000000000000000e+00 2.032100000000000151e+01
1.566699999999999982e+01 0.000000000000000000e+00 0.000000000000000000e+00 0.000000000000000000e+00 1.565799999999999947e+01 0.000000000000000000e+00 0.000000000000000000e+00 0.000000000000000000e+00 2.056099999999999994e+01
1.827899999999999991e+01 0.000000000000000000e+00 0.000000000000000000e+00 0.000000000000000000e+00 1.826800000000000068e+01 0.000000000000000000e+00 0.000000000000000000e+00 0.000000000000000000e+00 2.398900000000000077e+01
