1.282367600000000074e+01 4.503947000000000145e+00 8.514649999999999608e+00 1.212887599999999999e+01 5.505447000000000202e+00 1.789594999999999914e+01 6.880925999999999654e+00 1.292171699999999923e+01 7.543370000000000353e+00 7.964985999999999677e+00 1.390821700000000050e+01 1.892644999999999911e+01 2.410995999999999917e+00 1.159796999999999967e+00 2.181145000000000067e+01 2.915559999999999818e-01 1.877186999999999939e+00 2.224295000000000044e+01 5.090775999999999968e+00 4.718626999999999683e+00 1.218820000000000014e+00 5.622755999999999865e+00 4.696666999999999703e+00 3.619419999999999860e+00 3.414536000000000016e+00 5.001927000000000234e+00 2.789779999999999927e+00 1.362927600000000083e+01 4.937066999999999872e+00 1.072414999999999985e+01 1.437617599999999918e+01 2.807507000000000197e+00 9.430949999999999278e+00 1.470760000000000123e-01 2.734726999999999908e+00 1.860470000000000068e+00 1.680167600000000050e+01 3.075356999999999896e+00 4.000449999999999839e+00 1.497665999999999942e+00 4.040136999999999645e+00 3.236149999999999860e+00 4.462595999999999563e+00 4.856546999999999947e+00 2.155375000000000085e+01 5.835525999999999769e+00 5.400306999999999746e+00 6.007049999999999557e+00 5.126915999999999585e+00 1.601591700000000174e+01 1.184425000000000061e+01 4.473606000000000193e+00 1.558581700000000048e+01 9.774649999999999395e+00 3.647056000000000076e+00 1.429871699999999990e+01 1.141474999999999973e+01 5.084976000000000163e+00 5.513117000000000267e+00 1.229814999999999969e+01 6.167626000000000275e+00 5.481067000000000355e+00 1.424735000000000085e+01 4.233465999999999951e+00 4.302837000000000245e+00 1.408564999999999934e+01 1.347287599999999941e+01 5.265887000000000207e+00 1.975554999999999950e+01 1.254757599999999940e+01 3.228317000000000103e+00 1.868815000000000026e+01 1.205265999999999948e+00 1.567196999999999951e+00 1.357424999999999926e+01 1.696747600000000133e+01 3.262666999999999984e+00 1.432155000000000022e+01 1.934795999999999960e+00 3.585266999999999982e+00 1.439284999999999926e+01 3.824965999999999866e+00 6.347137000000000029e+00 1.057585000000000086e+01 7.194206000000000323e+00 6.374316999999999567e+00 1.627485000000000070e+01 2.250159999999999938e-01 4.971086999999999811e+00 2.060135000000000005e+01 1.710827600000000004e+01 6.628497000000000305e+00 2.241325000000000145e+01 1.501467599999999969e+01 1.410561700000000052e+01 3.353139999999999787e+00 1.665467599999999848e+01 1.349261699999999919e+01 5.010799999999999699e+00 1.573997600000000041e+01 1.177911699999999939e+01 3.779879999999999907e+00 2.360986000000000029e+00 4.864686999999999983e+00 2.008445000000000036e+01 9.067975999999999814e+00 1.335381699999999938e+01 8.196130000000000138e+00 8.415945999999999927e+00 1.136961699999999986e+01 6.810469999999999580e+00 1.582897600000000082e+01 7.769716999999999985e+00 6.604090000000000238e+00 1.415597600000000078e+01 8.016277000000000541e+00 4.892350000000000421e+00 1.567097599999999957e+01 9.328616999999999493e+00 3.260089999999999932e+00 1.433047600000000088e+01 1.477581699999999998e+01 1.080249999999999932e+00 1.696717599999999848e+01 1.253941700000000026e+01 7.259750000000000369e+00 1.673567600000000155e+01 6.986106999999999623e+00 1.230075000000000074e+01 1.438547600000000060e+01 6.302157000000000231e+00 1.245454999999999934e+01 1.583857599999999977e+01 6.796667000000000236e+00 1.439024999999999999e+01 1.259746000000000032e+00 1.518581700000000012e+01 1.480635000000000012e+01 1.898786000000000085e+00 1.389461700000000022e+01 1.664464999999999861e+01 7.870960000000000178e-01 1.273691700000000004e+01 1.484145000000000003e+01 1.572446000000000010e+00 7.162476999999999983e+00 1.073235000000000028e+01 2.251485999999999876e+00 6.371837000000000195e+00 8.716350000000000264e+00 7.572295999999999694e+00 1.393681699999999957e+01 2.127534999999999954e+01 9.777775999999999357e+00 1.331311700000000009e+01 2.048274999999999935e+01 1.572627600000000037e+01 8.567707000000000406e+00 1.593135000000000012e+01 1.508767600000000009e+01 1.032191699999999912e+01 1.715265000000000128e+01 1.676257599999999925e+01 1.062941700000000012e+01 1.537565000000000026e+01 8.775960000000000427e-01 1.669311700000000087e+01 1.290365000000000073e+01 1.911275999999999975e+00 1.400951700000000066e+01 1.932264999999999944e+01 1.524717599999999962e+01 5.899206999999999645e+00 2.129684999999999917e+01 4.116886000000000045e+00 6.673377000000000336e+00 1.976314999999999955e+01 1.295757599999999954e+01 1.576601699999999973e+01 2.202994999999999948e+01 1.713307599999999908e+01 1.468491700000000044e+01 1.195434999999999981e+01 1.352535999999999961e+00 1.265681700000000021e+01 1.093524999999999991e+01 1.512527599999999950e+01 1.506781699999999979e+01 2.151415000000000077e+01 1.069267600000000051e+01 1.680931700000000006e+01 2.213494999999999990e+01 9.018675999999999249e+00 1.698681699999999850e+01 1.238490000000000091e+00 7.239276000000000266e+00 5.786170000000000480e-01 1.048295000000000066e+01 6.401095999999999897e+00 2.281626999999999850e+00 9.178950000000000387e+00 7.276965999999999823e+00 3.750169999999999892e-01 8.135210000000000719e+00 1.226647600000000082e+01 5.044006999999999685e+00 3.827799999999999869e+00 1.193747600000000020e+01 5.112517000000000422e+00 6.031819999999999737e+00 1.086617599999999939e+01 3.451467000000000063e+00 4.675220000000000375e+00 6.092786000000000257e+00 6.981417000000000428e+00 7.704430000000000334e+00 5.951565999999999690e+00 4.692816999999999794e+00 8.312950000000000728e+00 7.795825999999999922e+00 1.940669999999999895e-01 3.459229999999999805e+00 7.375866000000000255e+00 1.887369999999999881e-01 5.827950000000000408e+00 8.782676000000000371e+00 1.921817000000000109e+00 4.758680000000000021e+00 1.166257599999999961e+01 6.700066999999999773e+00 1.969230000000000036e+00 1.465147600000000061e+01 1.513381700000000052e+01 1.212645000000000017e+01 1.257197599999999937e+01 1.521711700000000000e+01 1.108934999999999960e+01 1.314027600000000007e+01 1.702741699999999980e+01 1.276125000000000043e+01 7.787575999999999610e+00 8.654169999999999918e-01 1.969024999999999892e+01 8.319516000000000133e+00 2.958247000000000071e+00 1.892405000000000115e+01 8.255525999999999698e+00 1.099726999999999899e+00 1.736015000000000086e+01 1.043557599999999930e+01 7.670847000000000193e+00 1.403004999999999924e+01 1.065827600000000075e+01 6.195077000000000389e+00 1.580155000000000065e+01 1.021757599999999933e+01 5.349016999999999911e+00 1.360125000000000028e+01 7.265395999999999965e+00 7.833886999999999823e+00 1.835794999999999888e+01 8.258855999999999753e+00 5.507996999999999588e+00 1.836315000000000097e+01 1.138917600000000085e+01 1.379007000000000094e+00 1.351815000000000033e+01 9.577075999999999922e+00 1.416967000000000088e+00 1.515044999999999931e+01 9.889376000000000388e+00 3.169716999999999896e+00 1.330064999999999920e+01 1.125007599999999996e+01 9.732217000000000340e+00 1.257854999999999990e+01 7.453515999999999586e+00 8.254497000000000639e+00 2.109000000000000041e-01 5.790896000000000043e+00 9.872116999999999365e+00 2.258644999999999925e+01 9.966159999999999464e-01 6.787007000000000012e+00 6.538190000000000168e+00 1.142259999999999942e-01 7.950366999999999962e+00 1.907969999999999944e+00 1.437996000000000052e+00 7.975736999999999632e+00 3.947509999999999852e+00 3.182096000000000036e+00 1.567651700000000048e+01 7.912079999999999558e+00 4.686326000000000214e+00 1.400641700000000078e+01 6.814160000000000217e+00 4.163316000000000017e+00 1.427281699999999987e+01 4.527140000000000164e+00 9.832876000000000616e+00 7.871087000000000167e+00 9.723899999999999766e-01 4.412360000000000171e-01 1.137191699999999983e+01 9.117250000000000298e+00 1.635937600000000103e+01 1.020661699999999961e+01 7.547380000000000422e+00 4.136785999999999852e+00 1.101581700000000019e+01 1.664709999999999912e+00 2.986225999999999825e+00 9.871517000000000763e+00 3.219180000000000152e+00 3.162015999999999938e+00 1.209431700000000021e+01 3.660810000000000120e+00 4.697955999999999577e+00 1.576821699999999993e+01 2.247570000000000068e+00 7.232645999999999908e+00 1.044441699999999962e+01 1.053144999999999953e+01 6.120055999999999941e+00 8.964116999999999891e+00 9.084749999999999659e+00 5.033815999999999846e+00 9.433616999999999919e+00 1.105184999999999995e+01 3.127336000000000116e+00 8.344407000000000352e+00 1.892095000000000127e+01 1.167365999999999904e+00 9.932416999999999163e+00 1.940285000000000082e+01 1.606416000000000066e+00 9.398016999999999399e+00 1.709834999999999994e+01 8.598496000000000805e+00 1.278531699999999915e+01 1.426854999999999940e+01 7.636796000000000362e+00 1.322721699999999956e+01 1.648035000000000139e+01 7.196895999999999738e+00 1.116261699999999912e+01 1.541924999999999990e+01 9.637176000000000187e+00 1.106381700000000023e+01 1.128165000000000084e+01 1.165797599999999967e+01 1.035601699999999958e+01 1.033355000000000068e+01 3.548599999999999671e-02 1.417581700000000033e+01 2.042064999999999841e+01 1.014896000000000020e+00 1.215011699999999983e+01 2.043894999999999840e+01 3.992966000000000015e+00 9.157617000000000118e+00 1.328955000000000020e+01 2.947966000000000086e+00 9.687516999999999712e+00 1.533305000000000007e+01 5.272865999999999609e+00 9.724316999999999211e+00 1.504674999999999940e+01 8.822575999999999752e+00 1.412681700000000085e+01 1.245434999999999981e+01 6.435255999999999865e+00 8.488816999999999169e+00 2.058735000000000070e+01 1.197127599999999958e+01 8.601036999999999821e+00 4.403099999999999792e-01 4.382976000000000205e+00 1.720871700000000004e+01 4.709300000000000153e-01 7.504635999999999640e+00 1.617811700000000030e+01 1.233404999999999951e+01 1.051857599999999948e+01 1.441611699999999985e+01 1.029574999999999996e+01 5.823045999999999722e+00 1.528931700000000049e+01 9.496000000000000274e-02 1.200047600000000081e+01 9.789317000000000490e+00 7.795980000000000132e+00 9.988576000000000121e+00 9.458116999999999663e+00 6.435050000000000381e+00 1.193257599999999918e+01 8.789517000000000024e+00 5.637279999999999625e+00 1.296007600000000082e+01 1.016351700000000058e+01 2.160024999999999906e+01 1.172667599999999943e+01 1.203121699999999983e+01 2.041325000000000145e+01 1.359767599999999987e+01 1.096631700000000009e+01 1.949774999999999991e+01 8.358860000000000179e-01 1.291457000000000077e+00 2.002424999999999855e+01 8.618736000000000175e+00 5.606470000000000065e-01 2.178415000000000035e+01 7.374560000000000004e-01 1.047870000000000051e-01 7.637950000000000017e+00 1.607447600000000065e+01 1.424047000000000063e+00 8.532249999999999446e+00 1.691447600000000051e+01 1.630506999999999929e+00 6.073889999999999567e+00 1.661387600000000120e+01 1.526346999999999898e+00 1.799575000000000102e+01 1.430817599999999956e+01 1.953376999999999919e+00 1.799105000000000132e+01 1.564007600000000053e+01 2.936056999999999917e+00 1.633524999999999849e+01 1.252097599999999922e+01 5.471536999999999651e+00 7.358550000000000146e+00 1.137847599999999915e+01 6.206367000000000189e+00 1.698424999999999940e+01 5.472826000000000413e+00 1.317091699999999932e+01 7.705709999999999837e+00 7.628105999999999831e+00 1.395141699999999929e+01 1.756725000000000136e+01 4.212115999999999971e+00 1.625871700000000075e+01 8.638149999999999551e+00 1.700657599999999903e+01 2.795827000000000062e+00 4.619500000000000273e-01 1.498736000000000068e+00 1.240126999999999979e+00 1.531800000000000106e-01 1.514577599999999968e+01 1.645377000000000089e+00 9.559049999999999159e+00 5.437325999999999659e+00 4.684796999999999656e+00 2.252165000000000106e+01 6.363716000000000150e+00 4.782746999999999638e+00 4.885049999999999670e+00 2.065036000000000094e+00 5.153146999999999700e+00 3.008830000000000116e+00 4.161775999999999698e+00 4.635896999999999935e+00 3.879010000000000069e+00 3.934795999999999960e+00 5.353996999999999673e+00 1.688209999999999988e+00 6.185865999999999865e+00 4.547297000000000367e+00 2.325429999999999886e+00 1.360917599999999972e+01 3.157856999999999914e+00 8.375650000000000261e+00 1.275987600000000022e+01 5.157947000000000060e+00 9.735749999999999460e+00 1.463457599999999914e+01 3.788927000000000156e+00 1.039175000000000004e+01 4.370859999999999745e-01 4.119397000000000197e+00 4.207720000000000127e+00 1.369575999999999905e+00 3.205166999999999877e+00 2.215399999999999814e+00 1.635487600000000086e+01 2.567187000000000108e+00 2.864230000000000054e+00 1.326677600000000012e+01 5.538737000000000243e+00 1.188705000000000034e+01 1.162716000000000083e+00 7.926370000000000360e-01 1.257595000000000063e+01 3.973586000000000062e+00 1.432191699999999912e+01 1.011395000000000088e+01 3.846945999999999977e+00 1.555651699999999948e+01 1.203635000000000055e+01 5.498365999999999865e+00 1.611761699999999919e+01 1.055995000000000061e+01 1.301247599999999949e+01 1.923977000000000048e+00 1.856534999999999869e+01 5.052145999999999582e+00 6.084247000000000405e+00 1.104424999999999990e+01 7.014815999999999718e+00 6.544887000000000121e+00 1.487894999999999968e+01 3.100945999999999980e+00 4.409716999999999665e+00 1.466624999999999979e+01 5.567605999999999611e+00 4.456656999999999869e+00 1.488795000000000002e+01 4.470145999999999731e+00 4.451166999999999874e+00 1.271964999999999968e+01 5.472415999999999947e+00 6.202016999999999669e+00 1.328674999999999962e+01 1.161087599999999931e+01 4.227446999999999733e+00 1.823345000000000127e+01 1.305857600000000041e+01 6.025297000000000125e+00 1.868694999999999951e+01 1.345927599999999913e+01 3.946206999999999798e+00 1.953835000000000122e+01 7.477460000000000218e-01 4.154976999999999698e+00 1.433464999999999989e+01 2.157675999999999927e+00 2.130177000000000209e+00 1.444764999999999944e+01 1.703957600000000028e+01 2.032667000000000002e+00 1.366435000000000066e+01 1.397157600000000066e+01 6.020126999999999562e+00 2.082134999999999891e+01 1.078216000000000063e+00 4.367856999999999879e+00 1.968414999999999893e+01 7.064600000000000046e-02 7.590287000000000006e+00 6.592599999999999572e-01 7.370459999999999789e-01 5.916297000000000139e+00 2.154954999999999998e+01 8.672636000000000678e+00 1.016671700000000023e+01 6.167620000000000324e+00 1.446177600000000041e+01 1.478531699999999915e+01 2.365629999999999900e+00 1.694647600000000054e+01 1.363121699999999947e+01 6.300390000000000157e+00 1.526387599999999978e+01 1.043991699999999945e+01 3.597589999999999844e+00 1.676867599999999925e+01 1.222191699999999948e+01 4.348469999999999835e+00 1.478407600000000066e+01 1.266441700000000026e+01 3.355970000000000120e+00 1.595257600000000053e+01 1.457361700000000049e+01 4.328820000000000334e+00 3.424415999999999904e+00 4.140336999999999712e+00 2.102595000000000169e+01 7.127585999999999977e+00 1.180581699999999934e+01 6.913899999999999935e+00 7.785146000000000122e+00 1.387571699999999986e+01 8.295450000000000657e+00 9.259776000000000451e+00 1.227441699999999969e+01 7.345539999999999736e+00 1.512397600000000075e+01 8.339707000000000647e+00 3.793460000000000054e+00 1.677057599999999837e+01 7.007867000000000068e+00 7.016160000000000174e+00 1.470247600000000077e+01 7.536367000000000260e+00 5.944939999999999891e+00 3.671360000000000179e-01 7.278817000000000093e+00 1.142045000000000066e+01 1.616717600000000132e+01 7.151296999999999571e+00 1.578224999999999945e+01 1.458957599999999921e+01 6.402547000000000210e+00 1.384975000000000023e+01 1.694537599999999955e+01 7.088856999999999964e+00 1.360234999999999950e+01 1.552547599999999939e+01 6.424347000000000030e+00 1.176425000000000054e+01 1.100287600000000054e+01 1.313751700000000078e+01 2.078355000000000175e+01 9.844260000000000232e-01 1.654191700000000154e+01 1.438824999999999932e+01 2.276445999999999970e+00 1.404321700000000028e+01 1.797285000000000110e+01 1.703599999999999906e-02 1.167691699999999955e+01 1.441104999999999947e+01 1.363166000000000100e+00 1.278821699999999950e+01 1.611224999999999952e+01 6.575060000000000349e-01 1.404481700000000011e+01 1.423845000000000027e+01 2.252206000000000152e+00 1.481991700000000023e+01 1.576745000000000019e+01 3.465246000000000048e+00 6.004326999999999970e+00 9.157249999999999446e+00 2.715716000000000019e+00 6.884337000000000373e+00 1.130804999999999971e+01 1.366656000000000093e+00 7.249986999999999959e+00 9.413249999999999673e+00 9.396276000000000295e+00 1.348291700000000048e+01 1.910814999999999841e+01 7.288865999999999623e+00 1.433831699999999998e+01 2.000655000000000072e+01 8.828075999999999368e+00 1.340261699999999934e+01 2.146474999999999866e+01 1.581747599999999920e+01 1.120241700000000051e+01 1.631475000000000009e+01 1.662857599999999891e+01 9.215916999999999248e+00 1.511045000000000016e+01 1.509127600000000058e+01 9.027117000000000502e+00 1.693775000000000119e+01 1.856486000000000081e+00 5.951367000000000296e+00 7.465659999999999741e+00 1.573607600000000062e+01 6.432776999999999745e+00 2.237144999999999939e+01 1.604657600000000173e+01 4.940737000000000378e+00 2.057094999999999985e+01 4.757996000000000336e+00 6.177767000000000230e+00 2.091985000000000028e+01 2.839135999999999882e+00 5.857186999999999699e+00 1.927284999999999826e+01 4.344365999999999950e+00 7.913907000000000025e+00 1.940654999999999930e+01 1.192927599999999977e+01 1.659411700000000067e+01 2.166134999999999877e+01 1.302597600000000000e+01 1.506731699999999918e+01 6.009700000000000042e-01 1.583627599999999980e+01 1.467181700000000077e+01 1.225065000000000026e+01 2.746415999999999968e+00 1.331511700000000076e+01 1.180715000000000003e+01 8.091159999999999464e-01 1.560181700000000049e+01 1.205315000000000047e+01 3.130760000000000209e-01 1.354771700000000045e+01 1.116404999999999959e+01 1.222736000000000045e+00 1.143801700000000032e+01 1.030785000000000018e+01 1.530837600000000087e+01 1.464861699999999978e+01 1.398099999999999898e-01 1.403377599999999958e+01 1.594091700000000067e+01 2.107464999999999833e+01 1.601447599999999838e+01 1.471251700000000007e+01 2.035324999999999918e+01 1.180987599999999915e+01 1.470721699999999998e+01 1.007094999999999985e+01 8.373366000000000753e+00 1.656751699999999872e+01 2.448640000000000150e+00 1.008427599999999913e+01 1.628481700000000032e+01 6.054199999999999582e-01 6.134576000000000029e+00 3.686207000000000011e+00 9.339449999999999363e+00 6.922895999999999717e+00 1.681971700000000070e+01 7.030350000000000321e+00 6.565155999999999992e+00 1.705467000000000066e+00 8.021499999999999631e+00 7.778876000000000346e+00 1.714981699999999876e+01 9.403850000000000264e+00 6.586716000000000015e+00 1.767606999999999928e+00 1.036314999999999920e+01 1.245547600000000088e+01 5.821517000000000053e+00 2.687240000000000073e+00 1.003427600000000020e+01 2.438647000000000009e+00 4.638110000000000177e+00 1.077227599999999974e+01 4.459037000000000361e+00 5.650260000000000282e+00 1.176277600000000056e+01 3.806436999999999848e+00 3.596369999999999845e+00 1.285357600000000033e+01 5.556027000000000271e+00 4.980199999999999960e+00 5.391466000000000314e+00 4.386077000000000226e+00 6.956870000000000331e+00 5.789005999999999652e+00 6.652486999999999817e+00 6.270809999999999995e+00 6.784576000000000384e+00 5.896336999999999939e+00 8.528549999999999187e+00 8.222046000000000632e+00 1.347126999999999963e+00 5.788509999999999600e+00 8.387755999999999545e+00 1.522297000000000011e+00 3.446499999999999897e+00 6.933816000000000201e+00 1.716711700000000107e+01 4.469369999999999621e+00 6.322606000000000392e+00 8.306257000000000446e+00 7.947099999999999831e+00 1.279407600000000045e+01 1.084867000000000026e+00 1.368774999999999942e+01 1.222337600000000002e+01 1.644951700000000017e+01 1.191755000000000031e+01 1.418637599999999921e+01 1.615641700000000114e+01 1.298685000000000045e+01 1.383267599999999931e+01 1.466541699999999970e+01 1.119405000000000072e+01 8.717076000000000491e+00 4.534027000000000029e+00 1.927765000000000128e+01 8.722476000000000340e+00 7.010070000000000467e-01 1.616304999999999836e+01 8.382125999999999522e+00 2.628366999999999898e+00 1.763485000000000014e+01 8.031205999999999179e+00 2.757569999999999744e-01 1.852894999999999825e+01 7.892336000000000240e+00 2.285106999999999999e+00 1.997715000000000174e+01 1.094927599999999934e+01 8.852116999999999791e+00 1.367655000000000065e+01 9.591476000000000113e+00 4.287897000000000070e+00 1.274445000000000050e+01 1.070837599999999945e+01 5.162077000000000027e+00 1.489155000000000051e+01 1.004987599999999937e+01 6.661577000000000304e+00 1.326045000000000051e+01 1.011757599999999968e+01 7.384656999999999805e+00 1.545625000000000071e+01 7.646976000000000440e+00 5.245737000000000094e+00 1.700185000000000102e+01 6.747446000000000055e+00 7.572077000000000169e+00 1.705185000000000173e+01 8.229355999999999227e+00 6.939027000000000278e+00 1.885245000000000104e+01 9.248675999999999675e+00 2.626487000000000016e+00 1.463925000000000054e+01 1.095627600000000079e+01 2.512967000000000173e+00 1.281744999999999912e+01 1.064147600000000082e+01 6.522170000000000467e-01 1.460805000000000042e+01 6.871705999999999648e+00 8.827617000000000047e+00 1.929564999999999841e+01 8.519845999999999364e+00 7.920897000000000077e+00 1.028909999999999991e+00 4.848626000000000325e+00 1.087421699999999980e+01 5.483599999999999586e-01 6.535256000000000398e+00 9.092216999999999771e+00 8.126799999999999580e-01 1.576857599999999948e+01 9.083617000000000274e+00 7.066930000000000156e+00 2.416726000000000152e+00 8.689317000000000846e+00 3.656789999999999985e+00 5.654259999999999842e-01 7.208787000000000056e+00 3.080350000000000144e+00 1.128926000000000096e+00 7.643327000000000204e+00 5.290239999999999831e+00 1.671757600000000110e+01 9.191117000000000203e+00 2.245169999999999888e+00 1.845545999999999909e+00 1.636411700000000025e+01 7.667980000000000018e+00 3.349016000000000215e+00 1.323561699999999952e+01 4.508840000000000181e+00 5.000835999999999615e+00 1.423701699999999981e+01 5.514300000000000423e+00 4.353045999999999971e+00 1.530761700000000047e+01 3.496799999999999908e+00 3.554565999999999892e+00 1.456261699999999948e+01 7.208870000000000111e+00 1.027677599999999991e+01 6.798226999999999798e+00 1.746269999999999989e+00 1.643267600000000073e+01 1.130741699999999916e+01 6.854339999999999655e+00 2.493160000000000098e-01 1.266971700000000034e+01 8.594450000000000145e+00 1.721997599999999906e+01 1.016991699999999987e+01 8.702249999999999375e+00 3.254065999999999903e+00 1.083921699999999966e+01 4.224190000000000111e+00 3.893585999999999991e+00 1.221071700000000071e+01 2.345639999999999947e+00 3.667445999999999984e+00 9.826717000000000368e+00 2.056020000000000181e+00 8.284496000000000748e+00 1.112151700000000076e+01 1.109314999999999962e+01 4.047265999999999586e+00 9.153316999999999481e+00 1.195425000000000004e+01 4.963756000000000057e+00 8.938017000000000323e+00 9.703649999999999665e+00 6.007515999999999856e+00 1.044671699999999959e+01 1.138405000000000022e+01 7.339076000000000377e+00 9.752717000000000525e+00 9.323750000000000426e+00 4.780659999999999910e-01 1.078941700000000026e+01 2.020534999999999926e+01 1.777995999999999910e+00 9.809416999999999831e+00 1.583314999999999984e+01 7.724659999999999860e-01 1.001431700000000014e+01 1.808184999999999931e+01 2.756585999999999981e+00 8.707617000000000829e+00 1.764355000000000118e+01 2.013635999999999981e+00 8.612697000000000713e+00 1.971985000000000099e+01 9.149475999999999942e+00 1.300441700000000012e+01 1.309595000000000020e+01 6.559986000000000317e+00 9.909817000000000320e+00 1.559834999999999994e+01 6.776965999999999823e+00 1.210741699999999987e+01 1.623904999999999887e+01 7.970285999999999760e+00 1.144851700000000072e+01 1.423664999999999914e+01 8.568386000000000280e+00 1.351161699999999932e+01 1.548855000000000004e+01 1.208827600000000047e+01 9.644716999999999985e+00 1.147804999999999964e+01 1.022677599999999920e+01 1.063171700000000008e+01 1.247455000000000069e+01 1.046527599999999936e+01 1.100791700000000084e+01 1.024505000000000088e+01 2.011336000000000013e+00 1.262251700000000021e+01 1.964355000000000118e+01 1.218676000000000093e+00 1.499201700000000059e+01 2.003604999999999947e+01 2.379960000000000131e-01 1.305171700000000001e+01 2.110225000000000151e+01 4.111976000000000298e+00 9.875716999999999857e+00 1.589905000000000079e+01 5.337285999999999753e+00 9.038016999999999967e+00 1.382445000000000057e+01 2.902845999999999815e+00 9.389917000000000513e+00 1.391005000000000003e+01 1.222357599999999955e+01 1.013001700000000049e+01 9.152549999999999741e+00 5.743496000000000379e+00 9.606816999999999496e+00 2.120635000000000048e+01 7.319245999999999697e+00 7.815627000000000102e+00 2.143224999999999980e+01 1.238557600000000036e+01 7.408466999999999913e+00 1.091380000000000017e+00 1.063207599999999964e+01 8.519997000000000043e+00 7.756000000000000394e-02 1.309017599999999959e+01 9.307916999999999774e+00 6.650000000000000355e-02 3.804786000000000001e+00 9.879269999999999996e-01 2.228314999999999912e+01 3.960535999999999834e+00 1.677521700000000138e+01 1.651960000000000095e+00 6.056206000000000422e+00 1.586861700000000042e+01 1.283375000000000021e+01 9.646276000000000295e+00 1.451301699999999961e+01 1.136425000000000018e+01 8.176505999999999830e+00 1.509881700000000038e+01 1.298905000000000065e+01 7.670005999999999879e+00 1.979069999999999996e-01 1.178364999999999974e+01 1.013527599999999929e+01 1.371811699999999945e+01 9.115850000000000009e+00 5.279116000000000142e+00 1.481281700000000079e+01 1.437189999999999968e+00 5.389485999999999777e+00 1.664881700000000109e+01 2.236325000000000074e+01 6.787326000000000192e+00 1.441171699999999944e+01 2.233344999999999914e+01 1.279477600000000059e+01 8.301147000000000276e+00 4.626129999999999853e+00 1.055407600000000023e+01 8.624587000000000003e+00 5.533979999999999677e+00 1.261587600000000009e+01 8.980316999999999439e+00 6.831109999999999793e+00 1.073827600000000082e+01 9.943917000000000783e+00 7.545969999999999622e+00 1.432137600000000077e+01 1.053681699999999921e+01 1.834625000000000128e+01 1.259687599999999996e+01 1.204441699999999926e+01 1.941355000000000075e+01 1.390357599999999927e+01 1.056801699999999933e+01 2.076454999999999984e+01 1.171157600000000087e+01 1.097221700000000055e+01 2.122155000000000058e+01 2.568559999999999732e-01 9.635470000000000423e-01 1.877035000000000053e+01 1.723967599999999933e+01 1.493767000000000067e+00 2.102574999999999861e+01 2.162506000000000039e+00 1.292677000000000076e+00 2.041694999999999993e+01 7.539355999999999725e+00 1.386070000000000080e-01 2.097944999999999993e+01 8.494006000000000611e+00 7.768969999999999487e-01 5.462700000000000333e-01 9.809075999999999240e+00 4.252969999999999806e-01 2.126764999999999972e+01 1.650557600000000136e+01 2.167507000000000073e+00 4.994780000000000442e+00 1.621327600000000047e+01 2.189397000000000038e+00 7.358830000000000204e+00 6.977759999999999518e-01 7.625570000000000404e-01 6.309999999999999609e+00 1.720507599999999826e+01 3.407169999999999921e-01 8.711750000000000327e+00 1.577537599999999962e+01 3.440056999999999920e+00 1.513325000000000031e+01 1.433127600000000079e+01 2.773277000000000214e+00 1.690684999999999860e+01 1.677627599999999930e+01 2.389777000000000040e+00 1.687565000000000026e+01 1.518607599999999991e+01 1.126927000000000012e+00 1.849395000000000167e+01