-1.057906429487157002e+05
-1.057953048895762186e+05
-1.057869791905372113e+05
-1.057971057264963893e+05
-1.057876390821169189e+05
-1.057837900119247061e+05
-1.057904195947779954e+05
-1.057823568097428069e+05
-1.057888777450364432e+05
-1.057927811378773185e+05
-1.057915842111415259e+05
-1.057917527225791418e+05
-1.057873340507473185e+05
-1.057909979038677557e+05
-1.057842388732464751e+05
-1.057850864135796000e+05
-1.057895159867774200e+05
-1.057946316288121307e+05
-1.057904409775742388e+05
-1.057938952084392367e+05
-1.057907176009485265e+05
-1.057949203920209548e+05
-1.057898596678412869e+05
-1.057889197720526281e+05
-1.057954406852181855e+05
-1.057843013287075737e+05
-1.057902723007076856e+05
-1.057957258382812433e+05
-1.057816387544667668e+05
-1.057876538683333638e+05
-1.057883589237608248e+05
-1.057820722368329007e+05
-1.057889802145286521e+05
-1.057896967803280713e+05
-1.057888158754885953e+05
-1.057868564083876408e+05
-1.057904026137732581e+05
-1.057912787936313980e+05
-1.057859308017798321e+05
-1.057870851948991913e+05
-1.057949676793225663e+05
-1.057858517383060389e+05
-1.057867195932592149e+05
-1.057901005785113812e+05
-1.057981749826825690e+05
