1.857662296794906798e+00 9.239547937386732857e-01 -2.297916955479543777e+00 -3.033281316748792200e+00 -1.564877900101575570e+00 -3.803875450666746039e-01 -2.806136160747641828e+00 3.725407946801245984e+00 2.577486395052134061e+00 3.895313142611799506e+00 -7.940297411702891273e-01 -1.763637560635119339e+00 4.459291866747850719e+00 -5.522339239244586917e-01 4.383083334306586143e-01 2.299790261397706814e+00 -4.557033904165501137e-01 3.299159116635135724e+00 3.014606878724089611e+00 1.471665118387239568e+00 1.692029246350287064e+00 1.643660107020030181e-01 -6.311719397073667359e-01 2.071298361449351422e+00 -1.750643204183851998e+00 9.595563479352328673e-02 4.638530682026031471e+00 1.395186620091724450e+00 -3.748545820282893626e+00 -8.667770542497221786e-01 1.124054513350650097e+00 1.985416309674440161e+00 1.356440606468987564e+00 -2.530981305667894254e+00 8.637642353162842124e-01 -8.506968595292003776e-01 8.982776985650446910e-01 -7.348439699463874542e-01 3.032640083567362588e+00 -5.409302736297453507e+00 2.347839041247585801e-01 2.404706191448980235e+00 2.933027311334923115e-01 2.945540357234611939e+00 -2.471324508305909884e+00 -6.762896617110951691e-01 -6.093926886705110846e+00 1.280563746362945177e-01 4.314650846909090509e-01 -1.686030862179173306e+00 2.318412763134257926e+00 1.411151629381099282e+00 -8.606403447170974941e-01 -3.846072399237818740e-01 -4.036666749676796506e+00 -7.158841394471914255e-01 9.073583214606891767e-01 -9.871283462953641674e-01 8.089596242413655824e-01 -2.795610577755912374e+00 4.880072474258528858e-01 4.775906277951059486e+00 3.099780334409176774e+00 5.885761615809472325e+00 8.979984767386482991e-01 -5.899262993846057235e-01 8.407353766176864918e-01 8.992490614196725351e-01 -4.020218372953143771e-01 1.084958829669074198e+00 2.593771763821886456e+00 9.965493832777018168e-01 -2.999667739680867307e+00 4.173141945200315561e+00 3.989853642108373677e+00 -3.415636270117111017e+00 -2.526927189868060974e+00 1.134156892727049115e+00 3.733410248941911647e+00 -1.208844360412363761e+00 1.654038622898777344e+00 -2.498105635268254687e+00 5.171003105419337553e-02 -2.346449616984375375e+00 -4.442876914368057428e-01 1.710068621841656755e+00 1.374085060482139298e+00 -3.202255258917348968e+00 1.619319471380111564e+00 5.035984182846748869e-01 -5.492987523129100325e-01 -1.133106339888507508e+00 -7.992855906870443006e-01 2.170652480682385033e+00 -3.521562129573618805e+00 1.856359775825731084e+00 -1.907182261995283623e+00 3.080896608569845818e-01 -2.103207811201110999e+00 -6.044484054605948842e+00 -3.406657462915069878e+00 -3.114364146966137170e+00 2.781000539944538996e+00 -1.024237081289654849e+00 -7.478954048925536835e-01 1.303234193251233020e+00 -8.767719615050957593e-02 2.586828756271232876e+00 1.520751081338116151e-01 -6.260497875660498979e-01 -2.883374162979782662e-01 -9.846549448497526891e-01 3.348951618793136742e+00 8.440346164669674245e-01 1.136160296475926812e-01 2.328462692001830980e+00 -5.016902482047634670e+00 5.163418350466579376e+00 -2.751672992200765666e+00 -4.758960135614237252e+00 -2.718015192154811466e+00 7.512738347257483795e-01 -2.713516275471307804e+00 2.936436594408602940e-01 7.083847451264440043e-01 -7.452291706939064009e-02 -1.811704338208614873e+00 -1.384501114470143790e+00 -1.045277962859617604e+00 -2.783527934561000339e-02 -3.035893043555914605e+00 1.551667056746232731e+00 5.665580550406640326e-01 8.450229486038625115e-01 2.059260455453143290e+00 1.168983002146065653e+00 -6.529101045123086866e-01 -5.518924813964159320e-02 1.455039335530793787e+00 -3.025813289889205393e-01 2.221211685866458119e+00 -1.480207352236406981e+00 1.723785972561641344e+00 8.874158152520204013e-01 -3.766888585972373527e+00 8.008441935522517818e-01 6.174026526992308916e-01 -1.819787372995218755e+00 1.685374716598175393e+00 -1.131389357055473388e+00 7.543648152017503605e-01 1.874345158146250689e+00 9.722689114567301116e-01 -4.048110216572978537e+00 1.131748283086458029e+00 -2.877156206580544939e+00 4.988921678251065472e+00 -5.279654848672766576e+00 -2.658126481268508368e+00 -9.110483690227904052e-01 3.365168596213145236e+00 2.641223533468365137e+00 -2.197098849985459346e+00 1.304615389983647233e+00 -1.939582792491441943e+00 1.405459720732144868e+00 1.966374718087956774e-01 1.757722994433992492e+00 2.543525719028744136e-01 -1.001170170261124204e+00 -2.814215595989521645e+00 -1.231238670798303847e+00 -3.530420094917091411e+00 -3.039665880646652329e+00 -1.861830055363862924e+00 -4.830498515887302169e+00 3.392033026924802908e+00 8.917218991824877872e-01 1.188372206908689277e+00 -7.927575592209248345e-01 6.207260609202259749e-01 -4.093753472106314462e+00 -2.073868436381818281e+00 9.722041196517100525e-01 2.804707141492474243e+00 2.208425074567794688e+00 -5.828691348441546877e-02 1.153859257880603284e+00 -4.881964806341657415e+00 -2.012439120353924249e+00 1.526985492798945687e+00 -1.427205084626533615e+00 -4.058851772248107115e-01 -7.513879917155459331e-01 9.245188938188886318e-01 9.890875270662119467e-01 -7.926865967678074776e-02 1.404047670759244859e+00 -1.266336802954270091e+00 5.794633998931301377e+00 -1.004149564850702614e-01 -2.723122431896559892e+00 8.802871740377773424e-01 1.087421432480515371e+00 1.899609334118044890e+00 1.808990281487214302e+00 -2.642826873532277077e+00 3.315203830129098250e+00 1.194396816334215128e+00 9.249832350881997955e-01 1.001895735633215434e+00 2.150541824313068506e+00 -1.596278785605994122e+00 2.914415608232541199e+00 -1.516386376250725698e+00 -1.717723310806182679e+00 1.664360574503300105e+00 -1.843915635496460315e+00 -9.346079034577438049e-01 2.727996729672641063e+00 1.861169796017466904e+00 -2.504047455165144598e+00 -1.003690365788139083e+00 1.363295168063581864e+00 -2.006211393761866635e+00 8.395079318670265467e-01 -1.056569734656744197e+00 -4.633260948551058078e+00 -1.015878938442052598e-01 -1.346863246401521774e+00 -9.096466034633855502e-01 -2.104427542641648774e+00 2.954400893681457418e+00 1.853449801027245769e+00 5.573920715130089576e-01 2.375558620941373711e+00 7.176761984987413134e-01 -6.037588355357373926e-01 4.330067182738494003e-01 2.694540504131194059e+00 -6.451602847229516158e-01 7.190810493821946092e-02 4.931058482602655779e+00 1.095139884808711939e+00 5.850358036572695930e+00 -2.570995387474597216e-01 1.789882869654361386e+00 2.551220002985226554e+00 9.248438812853390090e-01 -1.091885896378810061e+00 7.552307628180515708e-01 3.502878435576770144e+00 1.509554440365820760e+00 2.991411926747543082e-01 1.349693002774744022e+00 -1.924331007277963579e+00 1.288030230560507639e-01 2.710488029917627051e-01 4.726212506162613125e-01 -1.456568113596865111e+00 -3.272654640395812886e-01 -6.560638199106317847e-01 1.007814415599740610e+00 5.374284822566749442e-01 1.651702004152653114e+00 -7.968944645493952761e-01 3.495229403039667559e+00 -4.887826922033958188e-01 -1.742578681341539815e+00 -4.779424061587115441e-02 -5.954942808509423591e-01 -3.993105059434901349e+00 4.382623106802672197e+00 -2.592810685380753988e+00 -9.246294512639626761e-01 6.831421664229902699e-03 6.248002313263751883e-01 -7.313786368191578235e-01 -1.705949714236802972e+00 -2.984456577900695073e+00 4.972812172952082443e-01 6.978951575819483666e-02 -2.508199272893183007e+00 1.660426272120686164e+00 -1.611665296636260181e-01 -1.498124343207183129e+00 1.679916778356238316e+00 4.965550862803751464e+00 -5.609754182850967830e+00 -5.875723514017419546e+00 1.707488262495695075e+00 -3.023303378775685779e+00 1.773939457633326500e+00 -2.030221899728587687e+00 2.677598475559769042e+00 -2.267375332722655568e+00 1.423349458007158619e+00 8.895570301417345949e-01 3.097957422117141313e+00 -5.130456290993580915e+00 7.007053735695293328e-01 -2.807369261925724224e+00 -6.022038322152532125e-02 8.482867072265848352e-01 7.423315371916153760e-01 2.178787451757139948e+00 1.519010958574717352e+00 -4.267486526619805431e+00 1.583971942196885196e+00 1.175995943708486813e+00 1.596778608101864005e+00 -7.124882261110547788e-01 1.143903431396511738e+00 -2.149509269198143890e+00 2.243551488860873633e+00 5.459080326055886445e+00 2.163012189896752702e+00 -3.577284110332314970e-01 -2.064225770288657724e+00 -3.617145982819288452e+00 4.527018843379569946e-01 -7.413077238281615688e-01 2.560253317578792820e-01 1.660596993384707787e+00 3.809487140890436940e+00 1.741864943044968417e+00 -1.378493474326884627e+00 9.408747108210835375e-02 2.344328456700977004e+00 7.024655509392441211e-01 -3.918316290276658176e+00 2.722209690198855281e+00 -1.031577581421900147e+00 3.327234022815184766e-01 -3.642129908523336734e+00 -3.563940083822208504e-01 2.635743483737413406e+00 2.639489581353063330e-01 4.586164505390839530e+00 -2.559990036593314144e+00 -3.990789523736442579e+00 3.725889771573499321e+00 -4.220723298456834777e-02 -1.970381525585712224e+00 -2.203100833701296501e+00 -4.998039839255968286e-01 -2.511354530953530340e+00 -3.110870017481121241e+00 -4.927679024328111557e-01 -1.872662628098425541e+00 1.439408055459340474e+00 -5.008843615632744273e-01 -1.120854518091598528e+00 -3.316399393197922985e-01 -6.239008593662143110e-01 3.993694356328180817e+00 1.237920968466852623e+00 -1.149052323012916377e+00 -2.411594691608108132e+00 -1.103741768256151667e+00 5.299545418593284651e+00 -5.343518999595663344e-01 -1.458438848411653943e+00 2.399489936924181333e+00 -9.701369525391616566e-01 -5.271374867367728534e+00 2.892703668682012008e+00 -2.016429987010762037e+00 1.441751359074236571e+00 4.757603621474212119e+00 3.083956221584687185e-01 -2.707514805976145578e+00 2.946500921455069921e+00 3.818573420213504210e+00 1.100035265632458126e+00 6.214490551889431114e-01 -4.204836450710023321e+00 4.572419386754417725e-01 -8.859497721082704169e-01 1.892106854473248667e+00 -3.625415165490156078e+00 -3.543975980345199783e+00 -7.320234695453109453e-01 3.010271484215160775e+00 -3.690607034195292346e+00 -2.426251523500885465e+00 -1.938569777762157775e+00 -1.042445121162347110e+00 1.050576492692378405e+00 3.267336055956736818e+00 7.685881590657021034e-01 -1.762340696093366521e+00 2.270769189176092606e+00 -2.176833413193039579e+00 3.652701771375793882e+00 1.009765368839792288e+00 2.696372672395375591e+00 -3.209010575921713571e+00 -8.358574792968821443e-01 -3.540659771213651386e+00 1.968549871542205620e+00 4.873747559958940823e-01 2.104813208147721659e-01 4.249946459403631249e-01 1.093861017990575668e+00 3.299394115483502143e-01 2.265959168984357675e+00 -2.904261806788666078e+00 7.752360039490415744e-01 -1.098751256607574334e+00 -1.620318602151176401e+00 -3.170107210772498796e+00 -5.925441968398253989e-01 1.272017912969054754e+00 3.288914298131826452e+00 -1.182797026352905734e+00 -1.643576803270718978e+00 2.173095028887510605e+00 -4.558144620822989768e-01 -9.825785217650587766e-01 2.088281013454082735e-01 3.874205412354116418e-01 5.710658163197738446e+00 -3.789406823540931502e+00 5.891991913504903561e-02 -4.177374495574290997e-02 -4.034876747507945893e+00 -1.140541456624909709e-02 4.605221523597566868e-01 -2.123576606349158347e+00 -1.025727807025793359e+00 6.822602779657712668e-01 -1.533142256937886527e+00 -4.121472537579428774e+00 3.689857300451487854e-01 2.526515299107575663e-01 1.161305687471850118e-01 -2.762506593376677921e-01 1.873979547246494293e-01 2.150113992711665922e+00 -1.559907443059314058e+00 -9.297387478884104883e-01 1.290221839076348687e+00 3.359679804730722807e+00 -1.155052249846054035e+00 6.215534419859199966e-01 1.753955299550002123e-01 -4.474326650836578656e-01 -8.625727860128578062e-01 1.171837955332351022e+00 -2.114100547754620862e+00 5.529594892965496999e-01 -3.640502400087710644e-01 9.833200279780672792e-01 -6.008468038545530243e-01 -1.611541369453642458e+00 -1.141886143689415656e+00 -1.539179207659607140e+00 1.844390775399941784e+00 -8.868584000405769219e-01 4.817908336886398413e-01 -3.832155016675351078e+00 3.606446079018814643e+00 3.309430674613531576e+00 -6.180932510654379769e-04 2.542370779393225977e+00 -1.663010231011372020e-01 -4.208325437988291728e-01 2.276086745173819370e+00 3.057437861387145572e-01 -6.097231268761139411e+00 -3.035986117498046699e+00 1.724063651726013835e-01 -5.635812315544596052e-01 -3.580901652779274968e+00 2.669468646691761204e+00 -1.234278743427504432e+00 -1.395216959111535315e+00 -3.294791840444371012e-01 -2.770255384724685577e+00 -1.608116145539044695e+00 2.009346082995223437e+00 2.300159986062861428e+00 3.033002094922395142e-01 -1.303837888323405192e+00 -2.270289421286538489e-01 4.915420003441755559e-01 -3.160925800624601045e+00 -2.100140484876147795e+00 1.160066415645670590e+00 2.600506511999260972e-01 -5.163058395994244876e+00 2.815841561763123391e+00 1.944908061799289767e+00 1.916573474178484782e+00 1.595925001781757002e+00 -6.167585398820224718e+00 -4.552067560888637843e+00 1.160649541890852232e+00 7.169588606574465173e-01 -2.873604484379955082e+00 -9.576290488462202433e-01 -7.249287668956022612e-01 2.030375137489667026e+00 5.726741957462981869e-01 1.212056696967610092e+00 -1.721594364045800241e+00 -1.893061762266284198e+00 8.014221775906857914e-01 -4.640455924232344542e-01 -5.568238576673955054e-01 -3.185046864036396030e-01 -9.093529834580958982e-01 -1.628485454907766528e-01 -3.504934804055149122e+00 1.288421552494002809e+00 -4.371172955037719632e+00 -1.685867340004598702e+00 1.038122067949612370e+00 -2.107693872367745858e+00 -1.397966497059494717e+00 -1.298382006964166946e+00 -3.425884173944467648e+00 -5.773180198159503895e+00 -5.609062556043411529e-01 3.961572533437744070e+00 4.012863474642005990e+00 2.269371023161411483e+00 3.388143461740893425e-01 -3.038098536029974372e+00 -1.181258478094014075e+00 7.226749376781148593e-01 2.294202225325054467e+00 -1.666969730207049083e-01 5.254815933199001865e-01 -1.505597512273517458e+00 1.805386108777798926e+00 -8.672645354493977443e-01 1.383001132761859209e+00 -2.000925205225300429e-01 -5.645181416238781447e-01 1.841005146477300514e+00 -1.907495422386213946e+00 1.509241279974890215e+00 2.262197644748463965e+00 1.570025763276630570e+00 -9.202030396956005498e-02 -2.571401621807660742e-01 3.218589478651203151e-01 7.309106960051232615e-01 1.243287889649356409e-01 2.539639753389558496e+00 2.622701304763392471e+00 -1.471185350497685590e-02 -1.323610187488727163e+00 1.853513564390916746e-01 1.610513442324790767e-01 5.646369265997485121e-01 2.909979940692033029e+00 -1.244243825883741605e+00 1.000588072457292421e+00 2.908956641549254041e-01 1.095592399002503603e+00 2.311882160564764366e+00 7.509375344044532108e-01 -1.239731025242019058e+00 2.878624306606994310e+00 -8.199284654547405182e-01 1.018956857712915642e+01 2.360081092851674889e+00 5.825958779775854524e+00 2.391159561993016602e+00 3.327808407308895600e+00 -1.193878481894053989e+00 2.792729399315213801e+00 -8.444279952831613700e-01 -6.201707025914815485e-02 -1.370601215410618190e+00 -2.933047880161913090e-01 -2.375338020271900330e+00 8.383838454719940714e-01 -4.160446350961085615e-01 -6.708502354134493473e-01 -2.052851723183569010e+00 -1.375104245859520180e+00 -1.077478461513292851e+00 -2.019667006158396561e+00 -1.795770696380400544e+00 3.200514621933274739e+00 4.516729287677557214e-01 3.596603381083171014e-01 -4.084582860592585796e+00 -7.014744420107054346e+00 3.746637547358846909e+00 6.206535558050842560e+00 -3.897506808010339441e+00 -2.058476783144804617e-02 -9.223303706270962188e-01 -3.081853059024905583e+00 1.071418370861208169e+00 2.945198400485893764e+00 1.077609073564683051e+00 -1.993678807476536363e+00 -3.809203291077968068e+00 4.952407896577476487e-02 -1.488871456385493008e+00 -3.696603875704382314e-01 8.464900201889622444e-01 1.079513232723331217e+00 -6.466263278667017111e-01 -6.559270372111447589e-01 1.544787812559250018e+00 3.981034757536183188e-01 1.072295631332354171e+00 -1.544237596437253224e+00 3.687654379080802514e+00 -3.966626294229317340e-01 9.102065897782027903e-01 1.253654578452583768e-01 -2.686063062087046927e+00 -1.683552318526814640e+00 -3.432063049572423030e-01 1.323161787060333605e+00 2.542934365252766948e-01 4.587311217495562699e-01 -1.842075753922157499e+00 1.723836880408442962e+00 -1.153470507050482263e+00 -3.056506607745149484e+00 -5.021621999400611297e-02 -4.355577670413499636e-01 -3.467996790324879841e-01 -3.292467562994441099e-01 -5.465425294961789859e-01 4.577550794867880413e+00 -1.942165208720102454e+00 2.099643747704326380e+00 2.443885178879867670e-02 2.843531316657775587e+00 3.931104444237346396e+00 -1.611153647064870853e+00 1.271946436295262606e+00 1.353082231242108691e+00 -1.045563869554786196e+00 -2.303234511477270985e+00 -2.464506970599898317e+00 2.141245742954698550e-01 1.011171248164594916e+00 -2.257272953346256106e+00 1.006597255262575846e-01 -1.334837167480833475e+00 -1.199089079991430218e+00 -2.632197932184920375e-01 1.822499372833920273e+00 4.711819469475990729e-01 -8.232436461449393894e-01 6.275569683637810536e-01 1.103373586253021121e-01 4.690990961044704477e+00 -2.647830240697723880e-01 -2.138420100346874353e+00 -2.051112114640844641e+00 1.281664692827613417e+00 -1.780714315023332439e+00 2.209517279280992508e+00 -3.705350255161430795e+00 4.267003159185527861e-01 1.135338571837654964e+00 1.582169598731839821e+00 2.100065922878306957e+00 -2.463579830723300335e-01 -8.423752263495065673e-01 -7.853738645519990902e-01 -8.846493080217940896e-01 -1.305460254552283317e+00 2.610041191750721357e+00 1.641617108279195936e+00 1.096703115659992234e+00 -5.387957950308703836e-01 6.228050551082937591e-01 -1.710302078027999162e+00 -3.475375857007732550e-01 -4.039907882589828803e-01 1.369883877569323394e-01 4.179909603500874260e-01 3.907902293171353625e-01 -8.117276741336161283e-01 2.611757146142406061e+00 -9.489510607389153307e-01 9.954952308944369221e-01 -1.281516083052606669e+00 -1.103161727335018938e+00 -7.805170502788602027e-01 1.129666203574341665e+00 4.231431944008779311e+00 9.105536887336680429e-01 3.671355640573506496e-01 -1.165232790765017068e+00 2.060240560059242443e-01 5.318651287764113444e-01 8.149086432277017344e-01 1.548009919307316296e-01 1.646962432193360248e+00 -6.571226002799693822e-01 2.946494750806972762e-01 1.054469657421011064e+00 -2.892172478724981399e+00 2.763261469327230824e+00 -5.746534311234621217e-01 8.560833210973454177e-01 2.165228995225656927e+00 1.425694304284079061e+00 1.704552576663471486e+00 2.327712958258026710e+00 -3.528561701398496564e-01 7.297408439700369120e-01 6.399903100588818505e-01 -1.226313465175421502e-02 -3.055175290418187251e-01 1.587472242329998506e+00 -8.292600280396696943e-01 9.509174405992100176e-01 -2.362870740012265269e+00 2.407805399455777984e+00 1.036747556085970023e+00 -1.573983205589608803e+00 2.178399729368368121e+00 -3.762574788731784636e+00 -1.800366286550759920e+00 -4.679901792193434384e-01 5.290826807052673164e-01 -3.041105184315314958e+00 4.174165758563768702e-01 -2.308103667046604190e+00 3.599159572057418988e+00 -1.368589584130944337e+00 2.831730980613308413e-01 6.510630238485590748e-01 3.939074350475501585e-01 9.980509076480105490e-03 9.871283462953641674e-01 5.042885024302071750e-01 -8.320090517669539868e-04 2.101374100274904677e+00 -1.615910188306431072e+00 -2.013175484360185674e+00 1.903569861755071368e+00 -2.577976447355183165e+00 -1.640514619152503739e+00 1.658812647643279403e+00 1.550661241106396027e+00 1.787411525091449072e+00 2.984849956716888908e+00 2.154502351950095540e-01 4.516021205808407935e+00 3.247742705586231793e+00 -4.298951689708569113e+00 1.008321951405731776e+00 -1.916635180659456372e+00 -9.522708694151870157e-01 -1.791820453156869331e+00 4.425806844848616528e+00 -1.158088208709856293e+00 -1.199714886552616822e+00 5.825220358886894489e-01 -2.325383024380674180e-01 -2.327468189216839178e+00 2.436741111045381381e+00 -9.278474442466311256e-01 -2.511540164617119597e+00 -1.652336038244636152e+00 -5.502228068654596571e-01 -3.570986449728489553e+00 -4.391525809344849485e+00 -1.118603774198159373e+00 -1.269702377270595761e+00 -2.506586162636450510e+00 1.592837620850478642e+00 1.372090398484732576e+00 8.639035891191451100e-01 -2.036109726454626401e+00 -7.312161430859327460e-01 -1.539600868612912787e+00 -1.878571537872130159e+00 -1.585479637215290838e+00 -2.642162500420482729e+00 8.002656952931432865e-01 5.284846420605177064e-01 -7.437785541703990644e-01 -3.022306304887319994e-01 -3.486732934830553798e+00 -8.536880811942981762e-01 -3.238232708427160045e-01 1.963196834317919859e-01 -2.996401924175446041e+00 -4.338083883058052592e-01 -2.290930239171535820e+00 2.707104457877684833e-01 2.022930764781118995e+00 9.301095009949147396e-01 -1.082548677366458767e+00 2.070869501406599061e-02 5.526584645135432794e+00 8.905931848013824981e-01 1.248856899557042738e-01 -2.033971596888961120e+00 -1.204875091023866363e+00 -6.908349077174485986e-02 -1.628193377564501221e+00 -3.636410746178619036e+00 4.639761726321414703e-01 1.922086948253296512e+00 -1.800706186416778376e+00 1.015227420847127693e+00 1.524278635166991913e+00 1.139287272399162054e+00 8.483684683138723592e-01 -7.582883189501939958e-01 4.939989467281943880e-01 -1.280255213958087293e-02 -2.660427104567399059e+00 -1.043966700138971637e+00 2.517187336067370218e-01 1.402737436479948085e+00 -2.458694734313049413e+00 1.156119771966862775e+00 -2.844161751205035227e+00 -9.178839044524183220e-04 -4.937593198937546557e-01 2.057328528378057797e+00 -1.566792857894394153e+00 -1.195854631947169233e+00 -1.533108832594026749e+00 -1.294125802439151318e+00 -3.268550130969852141e+00 8.715886171034821217e-01 -1.304074429833796289e+00 3.445149965745148535e+00 -3.326863783929355223e-01 -3.303687858117775100e+00 -2.046289753152915059e-01 6.170792078948048598e-01 -3.976674166214190786e-01 3.242310478378032657e-01 2.250908958275386063e+00 7.394704133572325144e-01 3.767642433481576347e+00 3.930319743487657558e+00 -1.736814267577443394e+00 8.703647718975454639e-01 2.382286684249976361e+00 -1.776537814702905393e+00 8.327752405723513052e-01 -2.542137837427558278e+00 4.071877496160535514e+00 2.034817489898946563e-01 -6.288728590705001675e-01 1.111287442437627754e-01 1.509571923868763044e+00 -6.057401277956002694e-01 8.053420817944061394e-01 -4.048388924178699888e+00 -3.558635897562025807e+00 -1.885647214356872992e+00 3.647834672689159508e+00 6.720679099712887350e-01 2.496695127957378801e+00 -6.498355790978992408e-01 -7.245986372224042515e-01 2.148614525224056049e+00 -3.400960412059367943e+00 1.006695985632130252e+00 1.158071753648264091e+00 1.073834179591245830e+00 -1.726300511661233994e-01 2.078120012920760651e+00 -5.050660040904491055e-01 4.318622687400963223e+00 -2.030883187516332899e+00 -1.091818019249741534e+00 -8.967957145803771013e-01 -3.465966647100914511e+00 -7.207594656646217901e-01 1.820737138581506598e-01 -1.129927941897796023e-01 -2.704862969956391527e+00 1.489075087772699368e-01 -7.914797208441380905e-01 -2.129879409159731285e+00 -2.764501769594759906e-01 1.000937228295456505e+00 -2.190385184855750289e+00 -1.712526596667025114e+00 1.288332078096593891e+00 -4.117822599229958858e-01 5.513612914393855036e-01 1.425126604659140428e-01 -1.961062818517652351e-01 -3.449664823269569247e-01 -3.559444766683428796e+00 -1.525418148182267286e+00 1.254749868489829501e-02 3.044314435546512598e+00 8.647283990814654819e-01 -1.808248261053531314e+00 -2.325612881022292910e+00 -2.149095835775634455e+00 3.893678949307401160e-03 1.835588860110019205e+00 2.212216423602824555e+00 1.796263834007498783e+00 1.874033026196669782e+00 -4.925593859491946169e+00 4.822304923655624243e-01 2.145529715396151449e+00 5.222389177448431008e-01 -7.461285426540671395e-01 -2.346876420144428987e+00 2.708708826382945634e-01 -7.338232419069823376e-01 -2.208805083646445233e+00 -1.114807282956382206e+00 3.403379820334128336e+00 2.191504643264709618e+00 1.131577047601761921e+00 6.356353751643117889e-01 -1.347196975619443071e+00 -5.679217682701361847e-01 1.524443185782916377e+00 -7.821378738457139823e-01 4.132051085300658122e-01 3.137809010190618864e+00 2.762166179289984758e+00 4.929267966213130014e-02 1.338026878326390001e+00 2.459605933348729678e+00 5.543741103728233588e-01 9.542135951244425096e-02 -2.050223541314854181e+00 7.139187880282460430e-01 -1.318600649675183700e-01 6.246886454399515065e-01 -1.268650281770030031e+00 9.963092422225872102e-01 9.470026786022373022e-01 4.442650657271161596e-01 1.329846655832255919e+00 -1.530569096681370977e+00 5.941187405459504856e-01 -1.330103766169637436e-01 1.228401715335635025e+00 -9.377672752834892433e-01 -2.192004979981254209e+00 -8.840949781343991898e-01 -5.230138483017112705e-01 -2.326374441841617902e+00 1.206168870241570712e+00 3.325391570137508079e+00 9.328904064040345334e-01 -4.771649044984695442e-01 -2.979118967296653153e+00 1.346459068951157745e+00 1.647565098824182561e+00 -3.355969188341630716e+00 6.929488689114003952e-01 3.026916807457247227e+00 3.950660256498593093e+00 -9.022587950290618108e-01 -2.299388140830042282e+00 -6.109877497815592307e-01 1.781003307042549472e-02 9.924973243605671458e-01 -6.798305852775149427e-02 -1.383994092884827110e-01 2.804757020897926889e+00 1.964750294976379763e+00 2.701153382008648851e+00 -4.593152764360872164e-01 5.210880918747228252e-01 2.776784958852829277e+00 -2.467996986319516695e-01 -1.067288664622184191e+00 2.172637372486971419e+00 -2.263325844908894435e+00 -2.400252526184855295e+00 -1.774760668050923695e-01 -3.495034513403931786e-01 -2.021560880903550128e-01 1.274752538517445632e+00 1.828594944712563786e+00 2.070238038417989479e+00 1.776277619041475075e+00 -1.360719436703692775e+00 9.850652929482137665e-01 -1.715918396237763599e-01 -1.004742461288704591e+00 -2.506380474366545208e+00 4.422037093081926606e+00 2.060564519084343293e-01 5.644914021487905664e-01 -1.721936835015193124e+00 -3.607679694417571525e-01 -2.451191226226903552e+00 -2.856362150934468325e-01 -1.904590589794476596e+00 1.859320658471018239e+00 1.369940441843547463e+00 -2.552112175855941523e+00 2.057798526074791301e+00 -4.044719445443588413e+00 1.448791040111745698e-01 3.325974182162014792e-01 -3.136725547228892408e-01 -1.261951014819214345e+00 -5.117385315661773237e-01 7.117734593731338544e-01 6.347735413134086846e-01 2.296941478859517993e-01 3.849455971277760402e-01 -5.986454251458915854e-01 1.046597453111060227e+00 1.972147873603523616e+00 1.239280053710251517e+00 -6.029538744914629156e+00 6.693996188899422606e-01 -2.197866581452881274e+00 -2.348224706753658242e-01 1.722633604029496945e+00 6.936677494147194256e-01 2.917181601242092803e+00 -1.444344573937067500e+00 -2.652536388313156746e+00 3.144587467125348201e+00 -1.532041310473218232e+00 -7.298292899260960809e-01 3.590741265390869907e-01 -3.698617563866755553e+00 3.495162554351948003e+00 3.571287268823225780e+00 1.697061924094195040e-01 1.417073394671672926e+00 -3.995196394919164451e+00 1.036669394543406009e+00 -4.213477929149420653e-01 4.982669783287294041e-01 -4.352199240580304496e-01 -1.608127458393889264e-01 8.876405296868918882e-01 2.189258013136669234e+00 -2.336382204613860480e+00 -1.311865387277134420e+00 5.463018742203897826e-01 -1.067249069630227476e+00 4.953045015993509104e+00 -1.328500940326400537e+00 1.499488056436655281e-01 -9.808738802282184199e-01 1.281890949924509249e+00 -1.513823500407705414e+00 -1.634414419287786857e-01 -1.917373601548416184e+00 -3.630706496233470498e-02 -5.990187493557695975e-01 -1.073028395793891754e+00 1.504562900275894011e+00 -2.562126623496955080e+00 1.559214273589733191e+00 -9.750755278995879016e-02 1.421738404633125175e+00 1.994917565082040989e+00 -3.460551903395657547e+00 2.879813699027721441e+00 1.246026628963145644e+00 -1.560628380445332031e+00 6.815989901780257210e-01 -1.735350795537067059e+00 2.787014864956570026e+00 4.767917859768613376e+00 5.498047454568771170e-02 -1.024267420309465493e+00