1.715699958801269531e+01 0.000000000000000000e+00 0.000000000000000000e+00 0.000000000000000000e+00 1.714699935913085938e+01 0.000000000000000000e+00 0.000000000000000000e+00 0.000000000000000000e+00 2.251700019836425781e+01
1.738999938964843750e+01 0.000000000000000000e+00 0.000000000000000000e+00 0.000000000000000000e+00 1.737999916076660156e+01 0.000000000000000000e+00 0.000000000000000000e+00 0.000000000000000000e+00 2.282200050354003906e+01
1.630200004577636719e+01 0.000000000000000000e+00 0.000000000000000000e+00 0.000000000000000000e+00 1.629299926757812500e+01 0.000000000000000000e+00 0.000000000000000000e+00 0.000000000000000000e+00 2.139500045776367188e+01
1.594099998474121094e+01 0.000000000000000000e+00 0.000000000000000000e+00 0.000000000000000000e+00 1.593200016021728516e+01 0.000000000000000000e+00 0.000000000000000000e+00 0.000000000000000000e+00 2.092099952697753906e+01
1.640600013732910156e+01 0.000000000000000000e+00 0.000000000000000000e+00 0.000000000000000000e+00 1.639599990844726562e+01 0.000000000000000000e+00 0.000000000000000000e+00 0.000000000000000000e+00 2.153100013732910156e+01
1.679599952697753906e+01 0.000000000000000000e+00 0.000000000000000000e+00 0.000000000000000000e+00 1.678700065612792969e+01 0.000000000000000000e+00 0.000000000000000000e+00 0.000000000000000000e+00 2.204299926757812500e+01
1.771100044250488281e+01 0.000000000000000000e+00 0.000000000000000000e+00 0.000000000000000000e+00 1.770100021362304688e+01 0.000000000000000000e+00 0.000000000000000000e+00 0.000000000000000000e+00 2.324399948120117188e+01
1.735199928283691406e+01 0.000000000000000000e+00 0.000000000000000000e+00 0.000000000000000000e+00 1.734199905395507812e+01 0.000000000000000000e+00 0.000000000000000000e+00 0.000000000000000000e+00 2.277199935913085938e+01
1.762500000000000000e+01 0.000000000000000000e+00 0.000000000000000000e+00 0.000000000000000000e+00 1.761599922180175781e+01 0.000000000000000000e+00 0.000000000000000000e+00 0.000000000000000000e+00 2.313199996948242188e+01
1.743300056457519531e+01 0.000000000000000000e+00 0.000000000000000000e+00 0.000000000000000000e+00 1.742300033569335938e+01 0.000000000000000000e+00 0.000000000000000000e+00 0.000000000000000000e+00 2.287899971008300781e+01
1.611800003051757812e+01 0.000000000000000000e+00 0.000000000000000000e+00 0.000000000000000000e+00 1.610899925231933594e+01 0.000000000000000000e+00 0.000000000000000000e+00 0.000000000000000000e+00 2.115299987792968750e+01
1.685799980163574219e+01 0.000000000000000000e+00 0.000000000000000000e+00 0.000000000000000000e+00 1.684799957275390625e+01 0.000000000000000000e+00 0.000000000000000000e+00 0.000000000000000000e+00 2.212400054931640625e+01
1.810199928283691406e+01 0.000000000000000000e+00 0.000000000000000000e+00 0.000000000000000000e+00 1.809199905395507812e+01 0.000000000000000000e+00 0.000000000000000000e+00 0.000000000000000000e+00 2.375699996948242188e+01
1.717900085449218750e+01 0.000000000000000000e+00 0.000000000000000000e+00 0.000000000000000000e+00 1.717000007629394531e+01 0.000000000000000000e+00 0.000000000000000000e+00 0.000000000000000000e+00 2.254599952697753906e+01
1.542500019073486328e+01 0.000000000000000000e+00 0.000000000000000000e+00 0.000000000000000000e+00 1.541600036621093750e+01 0.000000000000000000e+00 0.000000000000000000e+00 0.000000000000000000e+00 2.024300003051757812e+01
1.749600028991699219e+01 0.000000000000000000e+00 0.000000000000000000e+00 0.000000000000000000e+00 1.748600006103515625e+01 0.000000000000000000e+00 0.000000000000000000e+00 0.000000000000000000e+00 2.296100044250488281e+01
1.694199943542480469e+01 0.000000000000000000e+00 0.000000000000000000e+00 0.000000000000000000e+00 1.693199920654296875e+01 0.000000000000000000e+00 0.000000000000000000e+00 0.000000000000000000e+00 2.223399925231933594e+01
1.647200012207031250e+01 0.000000000000000000e+00 0.000000000000000000e+00 0.000000000000000000e+00 1.646299934387207031e+01 0.000000000000000000e+00 0.000000000000000000e+00 0.000000000000000000e+00 2.161800003051757812e+01
1.654700088500976562e+01 0.000000000000000000e+00 0.000000000000000000e+00 0.000000000000000000e+00 1.653800010681152344e+01 0.000000000000000000e+00 0.000000000000000000e+00 0.000000000000000000e+00 2.171599960327148438e+01
1.676000022888183594e+01 0.000000000000000000e+00 0.000000000000000000e+00 0.000000000000000000e+00 1.675000000000000000e+01 0.000000000000000000e+00 0.000000000000000000e+00 0.000000000000000000e+00 2.199600028991699219e+01
1.676399993896484375e+01 0.000000000000000000e+00 0.000000000000000000e+00 0.000000000000000000e+00 1.675499916076660156e+01 0.000000000000000000e+00 0.000000000000000000e+00 0.000000000000000000e+00 2.200200080871582031e+01
1.654700088500976562e+01 0.000000000000000000e+00 0.000000000000000000e+00 0.000000000000000000e+00 1.653800010681152344e+01 0.000000000000000000e+00 0.000000000000000000e+00 0.000000000000000000e+00 2.171599960327148438e+01
1.717799949645996094e+01 0.000000000000000000e+00 0.000000000000000000e+00 0.000000000000000000e+00 1.716900062561035156e+01 0.000000000000000000e+00 0.000000000000000000e+00 0.000000000000000000e+00 2.254500007629394531e+01
1.709000015258789062e+01 0.000000000000000000e+00 0.000000000000000000e+00 0.000000000000000000e+00 1.707999992370605469e+01 0.000000000000000000e+00 0.000000000000000000e+00 0.000000000000000000e+00 2.242799949645996094e+01
1.712800025939941406e+01 0.000000000000000000e+00 0.000000000000000000e+00 0.000000000000000000e+00 1.711899948120117188e+01 0.000000000000000000e+00 0.000000000000000000e+00 0.000000000000000000e+00 2.247900009155273438e+01
1.748100090026855469e+01 0.000000000000000000e+00 0.000000000000000000e+00 0.000000000000000000e+00 1.747100067138671875e+01 0.000000000000000000e+00 0.000000000000000000e+00 0.000000000000000000e+00 2.294199943542480469e+01
1.817799949645996094e+01 0.000000000000000000e+00 0.000000000000000000e+00 0.000000000000000000e+00 1.816799926757812500e+01 0.000000000000000000e+00 0.000000000000000000e+00 0.000000000000000000e+00 2.385700035095214844e+01
1.763999938964843750e+01 0.000000000000000000e+00 0.000000000000000000e+00 0.000000000000000000e+00 1.762999916076660156e+01 0.000000000000000000e+00 0.000000000000000000e+00 0.000000000000000000e+00 2.315099906921386719e+01
1.655299949645996094e+01 0.000000000000000000e+00 0.000000000000000000e+00 0.000000000000000000e+00 1.654400062561035156e+01 0.000000000000000000e+00 0.000000000000000000e+00 0.000000000000000000e+00 2.172400093078613281e+01
1.564200019836425781e+01 0.000000000000000000e+00 0.000000000000000000e+00 0.000000000000000000e+00 1.563300037384033203e+01 0.000000000000000000e+00 0.000000000000000000e+00 0.000000000000000000e+00 2.052799987792968750e+01
1.812199974060058594e+01 0.000000000000000000e+00 0.000000000000000000e+00 0.000000000000000000e+00 1.811100006103515625e+01 0.000000000000000000e+00 0.000000000000000000e+00 0.000000000000000000e+00 2.378300094604492188e+01
1.579399967193603516e+01 0.000000000000000000e+00 0.000000000000000000e+00 0.000000000000000000e+00 1.578499984741210938e+01 0.000000000000000000e+00 0.000000000000000000e+00 0.000000000000000000e+00 2.072800064086914062e+01
1.682999992370605469e+01 0.000000000000000000e+00 0.000000000000000000e+00 0.000000000000000000e+00 1.681999969482421875e+01 0.000000000000000000e+00 0.000000000000000000e+00 0.000000000000000000e+00 2.208699989318847656e+01
1.682600021362304688e+01 0.000000000000000000e+00 0.000000000000000000e+00 0.000000000000000000e+00 1.681699943542480469e+01 0.000000000000000000e+00 0.000000000000000000e+00 0.000000000000000000e+00 2.208300018310546875e+01
1.687800025939941406e+01 0.000000000000000000e+00 0.000000000000000000e+00 0.000000000000000000e+00 1.686800003051757812e+01 0.000000000000000000e+00 0.000000000000000000e+00 0.000000000000000000e+00 2.215099906921386719e+01
1.684399986267089844e+01 0.000000000000000000e+00 0.000000000000000000e+00 0.000000000000000000e+00 1.683399963378906250e+01 0.000000000000000000e+00 0.000000000000000000e+00 0.000000000000000000e+00 2.210600090026855469e+01
1.674200057983398438e+01 0.000000000000000000e+00 0.000000000000000000e+00 0.000000000000000000e+00 1.673200035095214844e+01 0.000000000000000000e+00 0.000000000000000000e+00 0.000000000000000000e+00 2.197200012207031250e+01
1.547399997711181641e+01 0.000000000000000000e+00 0.000000000000000000e+00 0.000000000000000000e+00 1.546599960327148438e+01 0.000000000000000000e+00 0.000000000000000000e+00 0.000000000000000000e+00 2.030900001525878906e+01
1.622100067138671875e+01 0.000000000000000000e+00 0.000000000000000000e+00 0.000000000000000000e+00 1.621199989318847656e+01 0.000000000000000000e+00 0.000000000000000000e+00 0.000000000000000000e+00 2.128899955749511719e+01
1.784600067138671875e+01 0.000000000000000000e+00 0.000000000000000000e+00 0.000000000000000000e+00 1.783600044250488281e+01 0.000000000000000000e+00 0.000000000000000000e+00 0.000000000000000000e+00 2.342099952697753906e+01
1.603599929809570312e+01 0.000000000000000000e+00 0.000000000000000000e+00 0.000000000000000000e+00 1.602700042724609375e+01 0.000000000000000000e+00 0.000000000000000000e+00 0.000000000000000000e+00 2.104599952697753906e+01
1.810199928283691406e+01 0.000000000000000000e+00 0.000000000000000000e+00 0.000000000000000000e+00 1.809199905395507812e+01 0.000000000000000000e+00 0.000000000000000000e+00 0.000000000000000000e+00 2.375699996948242188e+01
1.824099922180175781e+01 0.000000000000000000e+00 0.000000000000000000e+00 0.000000000000000000e+00 1.823100090026855469e+01 0.000000000000000000e+00 0.000000000000000000e+00 0.000000000000000000e+00 2.393899917602539062e+01
1.738999938964843750e+01 0.000000000000000000e+00 0.000000000000000000e+00 0.000000000000000000e+00 1.737999916076660156e+01 0.000000000000000000e+00 0.000000000000000000e+00 0.000000000000000000e+00 2.282299995422363281e+01
1.640999984741210938e+01 0.000000000000000000e+00 0.000000000000000000e+00 0.000000000000000000e+00 1.640099906921386719e+01 0.000000000000000000e+00 0.000000000000000000e+00 0.000000000000000000e+00 2.153599929809570312e+01
1.529300022125244141e+01 0.000000000000000000e+00 0.000000000000000000e+00 0.000000000000000000e+00 1.528400039672851562e+01 0.000000000000000000e+00 0.000000000000000000e+00 0.000000000000000000e+00 2.007099914550781250e+01
1.633099937438964844e+01 0.000000000000000000e+00 0.000000000000000000e+00 0.000000000000000000e+00 1.632099914550781250e+01 0.000000000000000000e+00 0.000000000000000000e+00 0.000000000000000000e+00 2.143199920654296875e+01
1.637400054931640625e+01 0.000000000000000000e+00 0.000000000000000000e+00 0.000000000000000000e+00 1.636499977111816406e+01 0.000000000000000000e+00 0.000000000000000000e+00 0.000000000000000000e+00 2.148900032043457031e+01
1.670100021362304688e+01 0.000000000000000000e+00 0.000000000000000000e+00 0.000000000000000000e+00 1.669099998474121094e+01 0.000000000000000000e+00 0.000000000000000000e+00 0.000000000000000000e+00 2.191799926757812500e+01
1.638400077819824219e+01 0.000000000000000000e+00 0.000000000000000000e+00 0.000000000000000000e+00 1.637400054931640625e+01 0.000000000000000000e+00 0.000000000000000000e+00 0.000000000000000000e+00 2.150200080871582031e+01
1.687299919128417969e+01 0.000000000000000000e+00 0.000000000000000000e+00 0.000000000000000000e+00 1.686300086975097656e+01 0.000000000000000000e+00 0.000000000000000000e+00 0.000000000000000000e+00 2.214399909973144531e+01
1.699099922180175781e+01 0.000000000000000000e+00 0.000000000000000000e+00 0.000000000000000000e+00 1.698200035095214844e+01 0.000000000000000000e+00 0.000000000000000000e+00 0.000000000000000000e+00 2.229899978637695312e+01
1.605400085449218750e+01 0.000000000000000000e+00 0.000000000000000000e+00 0.000000000000000000e+00 1.604500007629394531e+01 0.000000000000000000e+00 0.000000000000000000e+00 0.000000000000000000e+00 2.106900024414062500e+01
1.633300018310546875e+01 0.000000000000000000e+00 0.000000000000000000e+00 0.000000000000000000e+00 1.632399940490722656e+01 0.000000000000000000e+00 0.000000000000000000e+00 0.000000000000000000e+00 2.143600082397460938e+01
1.549300003051757812e+01 0.000000000000000000e+00 0.000000000000000000e+00 0.000000000000000000e+00 1.548400020599365234e+01 0.000000000000000000e+00 0.000000000000000000e+00 0.000000000000000000e+00 2.033200073242187500e+01
1.772299957275390625e+01 0.000000000000000000e+00 0.000000000000000000e+00 0.000000000000000000e+00 1.771299934387207031e+01 0.000000000000000000e+00 0.000000000000000000e+00 0.000000000000000000e+00 2.325900077819824219e+01
1.639500045776367188e+01 0.000000000000000000e+00 0.000000000000000000e+00 0.000000000000000000e+00 1.638500022888183594e+01 0.000000000000000000e+00 0.000000000000000000e+00 0.000000000000000000e+00 2.151600074768066406e+01
1.659099960327148438e+01 0.000000000000000000e+00 0.000000000000000000e+00 0.000000000000000000e+00 1.658099937438964844e+01 0.000000000000000000e+00 0.000000000000000000e+00 0.000000000000000000e+00 2.177400016784667969e+01
1.808799934387207031e+01 0.000000000000000000e+00 0.000000000000000000e+00 0.000000000000000000e+00 1.807799911499023438e+01 0.000000000000000000e+00 0.000000000000000000e+00 0.000000000000000000e+00 2.373900032043457031e+01
1.753800010681152344e+01 0.000000000000000000e+00 0.000000000000000000e+00 0.000000000000000000e+00 1.752799987792968750e+01 0.000000000000000000e+00 0.000000000000000000e+00 0.000000000000000000e+00 2.301600074768066406e+01
1.679899978637695312e+01 0.000000000000000000e+00 0.000000000000000000e+00 0.000000000000000000e+00 1.678899955749511719e+01 0.000000000000000000e+00 0.000000000000000000e+00 0.000000000000000000e+00 2.204700088500976562e+01
1.806999969482421875e+01 0.000000000000000000e+00 0.000000000000000000e+00 0.000000000000000000e+00 1.805999946594238281e+01 0.000000000000000000e+00 0.000000000000000000e+00 0.000000000000000000e+00 2.371599960327148438e+01
1.562399959564208984e+01 0.000000000000000000e+00 0.000000000000000000e+00 0.000000000000000000e+00 1.561499977111816406e+01 0.000000000000000000e+00 0.000000000000000000e+00 0.000000000000000000e+00 2.050499916076660156e+01
1.847299957275390625e+01 0.000000000000000000e+00 0.000000000000000000e+00 0.000000000000000000e+00 1.846299934387207031e+01 0.000000000000000000e+00 0.000000000000000000e+00 0.000000000000000000e+00 2.424399948120117188e+01
1.609799957275390625e+01 0.000000000000000000e+00 0.000000000000000000e+00 0.000000000000000000e+00 1.608900070190429688e+01 0.000000000000000000e+00 0.000000000000000000e+00 0.000000000000000000e+00 2.112700080871582031e+01
1.549800014495849609e+01 0.000000000000000000e+00 0.000000000000000000e+00 0.000000000000000000e+00 1.548900032043457031e+01 0.000000000000000000e+00 0.000000000000000000e+00 0.000000000000000000e+00 2.033900070190429688e+01
1.837199974060058594e+01 0.000000000000000000e+00 0.000000000000000000e+00 0.000000000000000000e+00 1.836199951171875000e+01 0.000000000000000000e+00 0.000000000000000000e+00 0.000000000000000000e+00 2.411100006103515625e+01
1.549899959564208984e+01 0.000000000000000000e+00 0.000000000000000000e+00 0.000000000000000000e+00 1.548999977111816406e+01 0.000000000000000000e+00 0.000000000000000000e+00 0.000000000000000000e+00 2.034000015258789062e+01
1.671699905395507812e+01 0.000000000000000000e+00 0.000000000000000000e+00 0.000000000000000000e+00 1.670800018310546875e+01 0.000000000000000000e+00 0.000000000000000000e+00 0.000000000000000000e+00 2.194000053405761719e+01
1.710199928283691406e+01 0.000000000000000000e+00 0.000000000000000000e+00 0.000000000000000000e+00 1.709300041198730469e+01 0.000000000000000000e+00 0.000000000000000000e+00 0.000000000000000000e+00 2.244499969482421875e+01
1.831100082397460938e+01 0.000000000000000000e+00 0.000000000000000000e+00 0.000000000000000000e+00 1.830100059509277344e+01 0.000000000000000000e+00 0.000000000000000000e+00 0.000000000000000000e+00 2.403199958801269531e+01
1.718000030517578125e+01 0.000000000000000000e+00 0.000000000000000000e+00 0.000000000000000000e+00 1.717000007629394531e+01 0.000000000000000000e+00 0.000000000000000000e+00 0.000000000000000000e+00 2.254700088500976562e+01
1.681500053405761719e+01 0.000000000000000000e+00 0.000000000000000000e+00 0.000000000000000000e+00 1.680599975585937500e+01 0.000000000000000000e+00 0.000000000000000000e+00 0.000000000000000000e+00 2.206800079345703125e+01
1.555799961090087891e+01 0.000000000000000000e+00 0.000000000000000000e+00 0.000000000000000000e+00 1.554899978637695312e+01 0.000000000000000000e+00 0.000000000000000000e+00 0.000000000000000000e+00 2.041799926757812500e+01
1.737199974060058594e+01 0.000000000000000000e+00 0.000000000000000000e+00 0.000000000000000000e+00 1.736300086975097656e+01 0.000000000000000000e+00 0.000000000000000000e+00 0.000000000000000000e+00 2.279999923706054688e+01
1.615500068664550781e+01 0.000000000000000000e+00 0.000000000000000000e+00 0.000000000000000000e+00 1.614599990844726562e+01 0.000000000000000000e+00 0.000000000000000000e+00 0.000000000000000000e+00 2.120199966430664062e+01
1.749799919128417969e+01 0.000000000000000000e+00 0.000000000000000000e+00 0.000000000000000000e+00 1.748800086975097656e+01 0.000000000000000000e+00 0.000000000000000000e+00 0.000000000000000000e+00 2.296500015258789062e+01
1.604700088500976562e+01 0.000000000000000000e+00 0.000000000000000000e+00 0.000000000000000000e+00 1.603800010681152344e+01 0.000000000000000000e+00 0.000000000000000000e+00 0.000000000000000000e+00 2.105999946594238281e+01
1.742300033569335938e+01 0.000000000000000000e+00 0.000000000000000000e+00 0.000000000000000000e+00 1.741399955749511719e+01 0.000000000000000000e+00 0.000000000000000000e+00 0.000000000000000000e+00 2.286599922180175781e+01
1.824900054931640625e+01 0.000000000000000000e+00 0.000000000000000000e+00 0.000000000000000000e+00 1.823800086975097656e+01 0.000000000000000000e+00 0.000000000000000000e+00 0.000000000000000000e+00 2.394899940490722656e+01
1.632099914550781250e+01 0.000000000000000000e+00 0.000000000000000000e+00 0.000000000000000000e+00 1.631100082397460938e+01 0.000000000000000000e+00 0.000000000000000000e+00 0.000000000000000000e+00 2.141900062561035156e+01
1.584599971771240234e+01 0.000000000000000000e+00 0.000000000000000000e+00 0.000000000000000000e+00 1.583699989318847656e+01 0.000000000000000000e+00 0.000000000000000000e+00 0.000000000000000000e+00 2.079599952697753906e+01
1.650099945068359375e+01 0.000000000000000000e+00 0.000000000000000000e+00 0.000000000000000000e+00 1.649200057983398438e+01 0.000000000000000000e+00 0.000000000000000000e+00 0.000000000000000000e+00 2.165600013732910156e+01
1.726099967956542969e+01 0.000000000000000000e+00 0.000000000000000000e+00 0.000000000000000000e+00 1.725099945068359375e+01 0.000000000000000000e+00 0.000000000000000000e+00 0.000000000000000000e+00 2.265299987792968750e+01
1.640699958801269531e+01 0.000000000000000000e+00 0.000000000000000000e+00 0.000000000000000000e+00 1.639800071716308594e+01 0.000000000000000000e+00 0.000000000000000000e+00 0.000000000000000000e+00 2.153300094604492188e+01
1.759600067138671875e+01 0.000000000000000000e+00 0.000000000000000000e+00 0.000000000000000000e+00 1.758699989318847656e+01 0.000000000000000000e+00 0.000000000000000000e+00 0.000000000000000000e+00 2.309300041198730469e+01
1.551599979400634766e+01 0.000000000000000000e+00 0.000000000000000000e+00 0.000000000000000000e+00 1.550699996948242188e+01 0.000000000000000000e+00 0.000000000000000000e+00 0.000000000000000000e+00 2.036300086975097656e+01
1.694199943542480469e+01 0.000000000000000000e+00 0.000000000000000000e+00 0.000000000000000000e+00 1.693199920654296875e+01 0.000000000000000000e+00 0.000000000000000000e+00 0.000000000000000000e+00 2.223500061035156250e+01
1.763299942016601562e+01 0.000000000000000000e+00 0.000000000000000000e+00 0.000000000000000000e+00 1.762299919128417969e+01 0.000000000000000000e+00 0.000000000000000000e+00 0.000000000000000000e+00 2.314100074768066406e+01
1.663800048828125000e+01 0.000000000000000000e+00 0.000000000000000000e+00 0.000000000000000000e+00 1.662800025939941406e+01 0.000000000000000000e+00 0.000000000000000000e+00 0.000000000000000000e+00 2.183499908447265625e+01
1.574100017547607422e+01 0.000000000000000000e+00 0.000000000000000000e+00 0.000000000000000000e+00 1.573200035095214844e+01 0.000000000000000000e+00 0.000000000000000000e+00 0.000000000000000000e+00 2.065900039672851562e+01
1.636700057983398438e+01 0.000000000000000000e+00 0.000000000000000000e+00 0.000000000000000000e+00 1.635799980163574219e+01 0.000000000000000000e+00 0.000000000000000000e+00 0.000000000000000000e+00 2.147999954223632812e+01
1.720499992370605469e+01 0.000000000000000000e+00 0.000000000000000000e+00 0.000000000000000000e+00 1.719599914550781250e+01 0.000000000000000000e+00 0.000000000000000000e+00 0.000000000000000000e+00 2.257999992370605469e+01
1.795999908447265625e+01 0.000000000000000000e+00 0.000000000000000000e+00 0.000000000000000000e+00 1.795000076293945312e+01 0.000000000000000000e+00 0.000000000000000000e+00 0.000000000000000000e+00 2.357099914550781250e+01
1.566300010681152344e+01 0.000000000000000000e+00 0.000000000000000000e+00 0.000000000000000000e+00 1.565400028228759766e+01 0.000000000000000000e+00 0.000000000000000000e+00 0.000000000000000000e+00 2.055599975585937500e+01
1.598200035095214844e+01 0.000000000000000000e+00 0.000000000000000000e+00 0.000000000000000000e+00 1.597299957275390625e+01 0.000000000000000000e+00 0.000000000000000000e+00 0.000000000000000000e+00 2.097500038146972656e+01
1.593700027465820312e+01 0.000000000000000000e+00 0.000000000000000000e+00 0.000000000000000000e+00 1.592800045013427734e+01 0.000000000000000000e+00 0.000000000000000000e+00 0.000000000000000000e+00 2.091600036621093750e+01
1.700600051879882812e+01 0.000000000000000000e+00 0.000000000000000000e+00 0.000000000000000000e+00 1.699600028991699219e+01 0.000000000000000000e+00 0.000000000000000000e+00 0.000000000000000000e+00 2.231800079345703125e+01
1.557699966430664062e+01 0.000000000000000000e+00 0.000000000000000000e+00 0.000000000000000000e+00 1.556900024414062500e+01 0.000000000000000000e+00 0.000000000000000000e+00 0.000000000000000000e+00 2.044400024414062500e+01
1.653000068664550781e+01 0.000000000000000000e+00 0.000000000000000000e+00 0.000000000000000000e+00 1.652099990844726562e+01 0.000000000000000000e+00 0.000000000000000000e+00 0.000000000000000000e+00 2.169400024414062500e+01
1.630200004577636719e+01 0.000000000000000000e+00 0.000000000000000000e+00 0.000000000000000000e+00 1.629199981689453125e+01 0.000000000000000000e+00 0.000000000000000000e+00 0.000000000000000000e+00 2.139399909973144531e+01
1.855500030517578125e+01 0.000000000000000000e+00 0.000000000000000000e+00 0.000000000000000000e+00 1.854500007629394531e+01 0.000000000000000000e+00 0.000000000000000000e+00 0.000000000000000000e+00 2.435199928283691406e+01
1.791399955749511719e+01 0.000000000000000000e+00 0.000000000000000000e+00 0.000000000000000000e+00 1.790399932861328125e+01 0.000000000000000000e+00 0.000000000000000000e+00 0.000000000000000000e+00 2.351000022888183594e+01
1.673500061035156250e+01 0.000000000000000000e+00 0.000000000000000000e+00 0.000000000000000000e+00 1.672500038146972656e+01 0.000000000000000000e+00 0.000000000000000000e+00 0.000000000000000000e+00 2.196299934387207031e+01
1.539000034332275391e+01 0.000000000000000000e+00 0.000000000000000000e+00 0.000000000000000000e+00 1.538099956512451172e+01 0.000000000000000000e+00 0.000000000000000000e+00 0.000000000000000000e+00 2.019799995422363281e+01
1.842900085449218750e+01 0.000000000000000000e+00 0.000000000000000000e+00 0.000000000000000000e+00 1.841900062561035156e+01 0.000000000000000000e+00 0.000000000000000000e+00 0.000000000000000000e+00 2.418600082397460938e+01
1.790099906921386719e+01 0.000000000000000000e+00 0.000000000000000000e+00 0.000000000000000000e+00 1.789100074768066406e+01 0.000000000000000000e+00 0.000000000000000000e+00 0.000000000000000000e+00 2.349399948120117188e+01
1.742200088500976562e+01 0.000000000000000000e+00 0.000000000000000000e+00 0.000000000000000000e+00 1.741200065612792969e+01 0.000000000000000000e+00 0.000000000000000000e+00 0.000000000000000000e+00 2.286400032043457031e+01
1.597099971771240234e+01 0.000000000000000000e+00 0.000000000000000000e+00 0.000000000000000000e+00 1.596199989318847656e+01 0.000000000000000000e+00 0.000000000000000000e+00 0.000000000000000000e+00 2.095999908447265625e+01
1.774099922180175781e+01 0.000000000000000000e+00 0.000000000000000000e+00 0.000000000000000000e+00 1.773100090026855469e+01 0.000000000000000000e+00 0.000000000000000000e+00 0.000000000000000000e+00 2.328300094604492188e+01
1.556599998474121094e+01 0.000000000000000000e+00 0.000000000000000000e+00 0.000000000000000000e+00 1.555700016021728516e+01 0.000000000000000000e+00 0.000000000000000000e+00 0.000000000000000000e+00 2.042799949645996094e+01
1.581299972534179688e+01 0.000000000000000000e+00 0.000000000000000000e+00 0.000000000000000000e+00 1.580500030517578125e+01 0.000000000000000000e+00 0.000000000000000000e+00 0.000000000000000000e+00 2.075399971008300781e+01
1.754400062561035156e+01 0.000000000000000000e+00 0.000000000000000000e+00 0.000000000000000000e+00 1.753499984741210938e+01 0.000000000000000000e+00 0.000000000000000000e+00 0.000000000000000000e+00 2.302499961853027344e+01
1.683799934387207031e+01 0.000000000000000000e+00 0.000000000000000000e+00 0.000000000000000000e+00 1.682799911499023438e+01 0.000000000000000000e+00 0.000000000000000000e+00 0.000000000000000000e+00 2.209799957275390625e+01
1.719499969482421875e+01 0.000000000000000000e+00 0.000000000000000000e+00 0.000000000000000000e+00 1.718499946594238281e+01 0.000000000000000000e+00 0.000000000000000000e+00 0.000000000000000000e+00 2.256699943542480469e+01
1.776300048828125000e+01 0.000000000000000000e+00 0.000000000000000000e+00 0.000000000000000000e+00 1.775300025939941406e+01 0.000000000000000000e+00 0.000000000000000000e+00 0.000000000000000000e+00 2.331200027465820312e+01
1.768499946594238281e+01 0.000000000000000000e+00 0.000000000000000000e+00 0.000000000000000000e+00 1.767499923706054688e+01 0.000000000000000000e+00 0.000000000000000000e+00 0.000000000000000000e+00 2.320899963378906250e+01
1.724699974060058594e+01 0.000000000000000000e+00 0.000000000000000000e+00 0.000000000000000000e+00 1.723699951171875000e+01 0.000000000000000000e+00 0.000000000000000000e+00 0.000000000000000000e+00 2.263500022888183594e+01
1.746299934387207031e+01 0.000000000000000000e+00 0.000000000000000000e+00 0.000000000000000000e+00 1.745299911499023438e+01 0.000000000000000000e+00 0.000000000000000000e+00 0.000000000000000000e+00 2.291799926757812500e+01
1.778499984741210938e+01 0.000000000000000000e+00 0.000000000000000000e+00 0.000000000000000000e+00 1.777499961853027344e+01 0.000000000000000000e+00 0.000000000000000000e+00 0.000000000000000000e+00 2.334099960327148438e+01
1.677400016784667969e+01 0.000000000000000000e+00 0.000000000000000000e+00 0.000000000000000000e+00 1.676499938964843750e+01 0.000000000000000000e+00 0.000000000000000000e+00 0.000000000000000000e+00 2.201499938964843750e+01
1.599600028991699219e+01 0.000000000000000000e+00 0.000000000000000000e+00 0.000000000000000000e+00 1.598700046539306641e+01 0.000000000000000000e+00 0.000000000000000000e+00 0.000000000000000000e+00 2.099300003051757812e+01
1.672999954223632812e+01 0.000000000000000000e+00 0.000000000000000000e+00 0.000000000000000000e+00 1.672100067138671875e+01 0.000000000000000000e+00 0.000000000000000000e+00 0.000000000000000000e+00 2.195599937438964844e+01
1.610400009155273438e+01 0.000000000000000000e+00 0.000000000000000000e+00 0.000000000000000000e+00 1.609499931335449219e+01 0.000000000000000000e+00 0.000000000000000000e+00 0.000000000000000000e+00 2.113400077819824219e+01
1.801899909973144531e+01 0.000000000000000000e+00 0.000000000000000000e+00 0.000000000000000000e+00 1.800900077819824219e+01 0.000000000000000000e+00 0.000000000000000000e+00 0.000000000000000000e+00 2.364800071716308594e+01
1.689299964904785156e+01 0.000000000000000000e+00 0.000000000000000000e+00 0.000000000000000000e+00 1.688400077819824219e+01 0.000000000000000000e+00 0.000000000000000000e+00 0.000000000000000000e+00 2.217000007629394531e+01
1.620299911499023438e+01 0.000000000000000000e+00 0.000000000000000000e+00 0.000000000000000000e+00 1.619400024414062500e+01 0.000000000000000000e+00 0.000000000000000000e+00 0.000000000000000000e+00 2.126499938964843750e+01
1.593500041961669922e+01 0.000000000000000000e+00 0.000000000000000000e+00 0.000000000000000000e+00 1.592599964141845703e+01 0.000000000000000000e+00 0.000000000000000000e+00 0.000000000000000000e+00 2.091300010681152344e+01
1.711400032043457031e+01 0.000000000000000000e+00 0.000000000000000000e+00 0.000000000000000000e+00 1.710499954223632812e+01 0.000000000000000000e+00 0.000000000000000000e+00 0.000000000000000000e+00 2.246100044250488281e+01
1.671899986267089844e+01 0.000000000000000000e+00 0.000000000000000000e+00 0.000000000000000000e+00 1.670899963378906250e+01 0.000000000000000000e+00 0.000000000000000000e+00 0.000000000000000000e+00 2.194199943542480469e+01
1.551299953460693359e+01 0.000000000000000000e+00 0.000000000000000000e+00 0.000000000000000000e+00 1.550399971008300781e+01 0.000000000000000000e+00 0.000000000000000000e+00 0.000000000000000000e+00 2.035899925231933594e+01
1.581499958038330078e+01 0.000000000000000000e+00 0.000000000000000000e+00 0.000000000000000000e+00 1.580599975585937500e+01 0.000000000000000000e+00 0.000000000000000000e+00 0.000000000000000000e+00 2.075499916076660156e+01
1.736100006103515625e+01 0.000000000000000000e+00 0.000000000000000000e+00 0.000000000000000000e+00 1.735099983215332031e+01 0.000000000000000000e+00 0.000000000000000000e+00 0.000000000000000000e+00 2.278400039672851562e+01