-1.058559921875000000e+05
-1.058551484375000000e+05
-1.058577812500000000e+05
-1.058555781250000000e+05
-1.058513984375000000e+05
-1.058460000000000000e+05
-1.058424609375000000e+05
-1.058468437500000000e+05
-1.058543828125000000e+05
-1.058455312500000000e+05
-1.058548671875000000e+05
-1.058528203125000000e+05
-1.058447109375000000e+05
-1.058492968750000000e+05
-1.058563203125000000e+05
-1.058543359375000000e+05
-1.058469140625000000e+05
-1.058504765625000000e+05
-1.058527109375000000e+05
-1.058490000000000000e+05
-1.058477500000000000e+05
-1.058521875000000000e+05
-1.058566093750000000e+05
-1.058510390625000000e+05
-1.058518750000000000e+05
-1.058560234375000000e+05
-1.058446093750000000e+05
-1.058426250000000000e+05
-1.058502109375000000e+05
-1.058573046875000000e+05
-1.058505625000000000e+05
-1.058554296875000000e+05
-1.058545937500000000e+05
-1.058479140625000000e+05
-1.058469140625000000e+05
-1.058540703125000000e+05
-1.058521093750000000e+05
-1.058571953125000000e+05
-1.058583671875000000e+05
-1.058508203125000000e+05
-1.058573906250000000e+05
-1.058479062500000000e+05
-1.058460625000000000e+05
-1.058549921875000000e+05
-1.058547343750000000e+05
-1.058546250000000000e+05
-1.058557890625000000e+05
-1.058516484375000000e+05
-1.058537500000000000e+05
-1.058526718750000000e+05
-1.058466484375000000e+05
-1.058560390625000000e+05
-1.058534375000000000e+05
-1.058522890625000000e+05
-1.058544531250000000e+05
-1.058542421875000000e+05
-1.058564296875000000e+05
-1.058511640625000000e+05
-1.058484531250000000e+05
-1.058548437500000000e+05
-1.058476484375000000e+05
-1.058477734375000000e+05
-1.058565703125000000e+05
-1.058408125000000000e+05
-1.058548671875000000e+05
-1.058560078125000000e+05
-1.058410000000000000e+05
-1.058570390625000000e+05
-1.058491562500000000e+05
-1.058496562500000000e+05
-1.058478828125000000e+05
-1.058539296875000000e+05
-1.058522500000000000e+05
-1.058566406250000000e+05
-1.058547656250000000e+05
-1.058585703125000000e+05
-1.058446171875000000e+05
-1.058557265625000000e+05
-1.058486953125000000e+05
-1.058479453125000000e+05
-1.058532968750000000e+05
-1.058558437500000000e+05
-1.058510078125000000e+05
-1.058471953125000000e+05
-1.058514843750000000e+05
-1.058537109375000000e+05
-1.058565312500000000e+05
-1.058464218750000000e+05
-1.058455625000000000e+05
-1.058505859375000000e+05
-1.058534062500000000e+05
-1.058523046875000000e+05
-1.058488046875000000e+05
-1.058493203125000000e+05
-1.058566015625000000e+05
-1.058558906250000000e+05
-1.058543671875000000e+05
-1.058519921875000000e+05
-1.058583671875000000e+05
-1.058486953125000000e+05
-1.058570390625000000e+05
-1.058441875000000000e+05
-1.058487187500000000e+05
-1.058472812500000000e+05
-1.058573437500000000e+05
-1.058405546875000000e+05
-1.058497109375000000e+05
-1.058463046875000000e+05
-1.058551406250000000e+05
-1.058497968750000000e+05
-1.058571406250000000e+05
-1.058553906250000000e+05
-1.058549140625000000e+05
-1.058446484375000000e+05
-1.058502031250000000e+05
-1.058529609375000000e+05
-1.058530234375000000e+05
-1.058571015625000000e+05
-1.058457031250000000e+05
-1.058515781250000000e+05
-1.058468125000000000e+05
-1.058572031250000000e+05
-1.058479687500000000e+05
-1.058586250000000000e+05
-1.058479375000000000e+05
-1.058478359375000000e+05
-1.058530625000000000e+05
-1.058567500000000000e+05
-1.058489453125000000e+05
-1.058473203125000000e+05
-1.058576718750000000e+05
-1.058565781250000000e+05
-1.058463906250000000e+05
-1.058438671875000000e+05
-1.058500546875000000e+05
-1.058493203125000000e+05
-1.058564296875000000e+05
-1.058520859375000000e+05
-1.058569765625000000e+05
-1.058568828125000000e+05
-1.058558750000000000e+05
-1.058511250000000000e+05
-1.058566796875000000e+05
-1.058565156250000000e+05
-1.058508906250000000e+05
-1.058547109375000000e+05
-1.058436875000000000e+05
-1.058566250000000000e+05
-1.058530078125000000e+05
-1.058574453125000000e+05
-1.058523203125000000e+05
-1.058411015625000000e+05
-1.058547734375000000e+05
-1.058575390625000000e+05
-1.058539843750000000e+05
-1.058534921875000000e+05
-1.058540156250000000e+05
-1.058411328125000000e+05
-1.058547265625000000e+05
-1.058559843750000000e+05
-1.058507109375000000e+05
-1.058404062500000000e+05
-1.058580625000000000e+05
-1.058473281250000000e+05
-1.058476953125000000e+05
-1.058500234375000000e+05
-1.058578750000000000e+05
-1.058461953125000000e+05
-1.058465000000000000e+05
-1.058480546875000000e+05
-1.058510234375000000e+05
-1.058559921875000000e+05
-1.058566875000000000e+05
-1.058483437500000000e+05
-1.058505156250000000e+05
-1.058560937500000000e+05
-1.058594218750000000e+05
-1.058540156250000000e+05
-1.058563359375000000e+05
-1.058523046875000000e+05
-1.058497187500000000e+05
-1.058449218750000000e+05
-1.058502734375000000e+05
-1.058531562500000000e+05
-1.058486796875000000e+05
-1.058572578125000000e+05
-1.058544140625000000e+05
-1.058557187500000000e+05
-1.058489609375000000e+05
-1.058568828125000000e+05
-1.058518515625000000e+05
-1.058535625000000000e+05
-1.058433359375000000e+05
-1.058393125000000000e+05
-1.058511328125000000e+05
-1.058574531250000000e+05
-1.058540312500000000e+05
-1.058515312500000000e+05
-1.058568750000000000e+05
-1.058565625000000000e+05
-1.058558750000000000e+05
-1.058566640625000000e+05
-1.058508437500000000e+05
-1.058494140625000000e+05
-1.058479453125000000e+05
-1.058566171875000000e+05
-1.058537500000000000e+05
-1.058440546875000000e+05
-1.058555859375000000e+05
-1.058439687500000000e+05
-1.058557187500000000e+05
-1.058461796875000000e+05
-1.058456250000000000e+05
-1.058577109375000000e+05
-1.058576562500000000e+05
-1.058508203125000000e+05
-1.058456093750000000e+05
-1.058463437500000000e+05
-1.058469687500000000e+05
-1.058557187500000000e+05
-1.058550156250000000e+05
-1.058579375000000000e+05
-1.058580390625000000e+05
-1.058587343750000000e+05
-1.058462343750000000e+05
-1.058418437500000000e+05
-1.058569609375000000e+05
-1.058532812500000000e+05
-1.058502343750000000e+05
-1.058528437500000000e+05
-1.058389062500000000e+05
-1.058562890625000000e+05
-1.058557734375000000e+05
-1.058530546875000000e+05
-1.058496250000000000e+05
-1.058440078125000000e+05
-1.058572656250000000e+05
-1.058552656250000000e+05
-1.058525078125000000e+05
-1.058568984375000000e+05
-1.058564609375000000e+05
-1.058482812500000000e+05
-1.058555078125000000e+05
-1.058456484375000000e+05
-1.058522500000000000e+05
-1.058413437500000000e+05
-1.058548125000000000e+05
-1.058516015625000000e+05
-1.058522812500000000e+05
-1.058470078125000000e+05
-1.058471328125000000e+05
-1.058514843750000000e+05
-1.058527500000000000e+05
-1.058453593750000000e+05
-1.058414531250000000e+05
-1.058570078125000000e+05
-1.058531250000000000e+05
-1.058375859375000000e+05
-1.058498906250000000e+05
-1.058571875000000000e+05
-1.058490078125000000e+05
-1.058485234375000000e+05
-1.058567421875000000e+05
-1.058532578125000000e+05
-1.058451093750000000e+05
-1.058462890625000000e+05
-1.058546015625000000e+05
-1.058405703125000000e+05
-1.058453437500000000e+05
-1.058459296875000000e+05
-1.058466953125000000e+05
-1.058555781250000000e+05
-1.058476875000000000e+05
-1.058435625000000000e+05
-1.058505234375000000e+05
-1.058511406250000000e+05
-1.058451015625000000e+05
-1.058580156250000000e+05
-1.058475000000000000e+05
-1.058529218750000000e+05
-1.058521718750000000e+05
-1.058464453125000000e+05
-1.058573281250000000e+05
-1.058497968750000000e+05
-1.058596093750000000e+05
-1.058577500000000000e+05
-1.058462343750000000e+05
-1.058422812500000000e+05
-1.058539218750000000e+05
-1.058571953125000000e+05
-1.058409062500000000e+05
-1.058512109375000000e+05
-1.058541718750000000e+05
-1.058478203125000000e+05
-1.058555546875000000e+05
-1.058458437500000000e+05
-1.058434765625000000e+05
-1.058531328125000000e+05
-1.058513828125000000e+05
-1.058486250000000000e+05
-1.058418984375000000e+05
-1.058441171875000000e+05
-1.058540156250000000e+05
-1.058562343750000000e+05
-1.058574140625000000e+05
-1.058481796875000000e+05
-1.058567890625000000e+05
-1.058490703125000000e+05
-1.058546484375000000e+05
-1.058507265625000000e+05
-1.058508906250000000e+05
-1.058508125000000000e+05
-1.058496406250000000e+05
-1.058576093750000000e+05
-1.058524218750000000e+05
-1.058477656250000000e+05
-1.058529843750000000e+05
-1.058497968750000000e+05
-1.058500546875000000e+05
-1.058520468750000000e+05
-1.058518828125000000e+05
-1.058549140625000000e+05
-1.058531093750000000e+05
-1.058504687500000000e+05
-1.058530703125000000e+05
-1.058553281250000000e+05
-1.058574531250000000e+05
-1.058457656250000000e+05
-1.058563984375000000e+05
-1.058518359375000000e+05
-1.058469765625000000e+05
-1.058540078125000000e+05
-1.058577656250000000e+05
-1.058560234375000000e+05
-1.058547968750000000e+05
-1.058488437500000000e+05
-1.058493593750000000e+05
-1.058554140625000000e+05
-1.058544843750000000e+05
-1.058564531250000000e+05
-1.058470390625000000e+05
-1.058530390625000000e+05
-1.058585000000000000e+05
-1.058478046875000000e+05
-1.058539765625000000e+05
-1.058502421875000000e+05
-1.058492265625000000e+05
-1.058422578125000000e+05
-1.058475859375000000e+05
-1.058508828125000000e+05
-1.058522265625000000e+05
-1.058400781250000000e+05
-1.058563984375000000e+05
-1.058528203125000000e+05
-1.058570156250000000e+05
-1.058424062500000000e+05
-1.058560781250000000e+05
-1.058511406250000000e+05
-1.058523046875000000e+05
-1.058547031250000000e+05
-1.058496406250000000e+05
-1.058510156250000000e+05
-1.058469218750000000e+05
-1.058559218750000000e+05
-1.058395468750000000e+05
-1.058463906250000000e+05
-1.058570625000000000e+05
-1.058565156250000000e+05
-1.058564140625000000e+05
-1.058560468750000000e+05
-1.058392812500000000e+05
-1.058410390625000000e+05
-1.058508281250000000e+05
-1.058514765625000000e+05
-1.058564765625000000e+05
-1.058478828125000000e+05
-1.058563437500000000e+05
-1.058460000000000000e+05
-1.058569687500000000e+05
-1.058492343750000000e+05
-1.058410468750000000e+05
-1.058534687500000000e+05
-1.058554140625000000e+05
-1.058451718750000000e+05
-1.058479921875000000e+05
-1.058432031250000000e+05
-1.058571171875000000e+05
-1.058531484375000000e+05
-1.058472968750000000e+05
-1.058541328125000000e+05
-1.058424218750000000e+05
-1.058552578125000000e+05
-1.058396562500000000e+05
-1.058573750000000000e+05
-1.058455468750000000e+05
-1.058554921875000000e+05
-1.058543125000000000e+05
-1.058511640625000000e+05
-1.058577031250000000e+05
-1.058512343750000000e+05
-1.058477656250000000e+05
-1.058587109375000000e+05
-1.058520000000000000e+05
-1.058466718750000000e+05
-1.058533750000000000e+05
-1.058559843750000000e+05
-1.058520000000000000e+05
-1.058495859375000000e+05
-1.058490390625000000e+05
-1.058565156250000000e+05
-1.058564453125000000e+05
-1.058554609375000000e+05
-1.058569375000000000e+05
-1.058516406250000000e+05
-1.058521953125000000e+05
-1.058484296875000000e+05
-1.058526171875000000e+05
-1.058534453125000000e+05
-1.058572500000000000e+05
-1.058460312500000000e+05
-1.058427812500000000e+05
-1.058550312500000000e+05
-1.058554609375000000e+05
-1.058493906250000000e+05
-1.058493437500000000e+05
-1.058494296875000000e+05
-1.058571562500000000e+05
-1.058528046875000000e+05
-1.058421406250000000e+05
-1.058415390625000000e+05
-1.058494218750000000e+05
-1.058528203125000000e+05
-1.058563593750000000e+05
-1.058515703125000000e+05
-1.058498906250000000e+05
-1.058570312500000000e+05
-1.058487109375000000e+05
-1.058458593750000000e+05
-1.058436406250000000e+05
-1.058462890625000000e+05
-1.058569843750000000e+05
-1.058405546875000000e+05
-1.058558984375000000e+05
-1.058552109375000000e+05
-1.058579218750000000e+05
-1.058547578125000000e+05
-1.058552890625000000e+05
-1.058555468750000000e+05
-1.058585312500000000e+05
-1.058442812500000000e+05
-1.058561484375000000e+05
-1.058572031250000000e+05
-1.058517812500000000e+05
-1.058500312500000000e+05
-1.058494531250000000e+05
-1.058571406250000000e+05
-1.058445312500000000e+05
-1.058516875000000000e+05
-1.058531718750000000e+05
-1.058514843750000000e+05
-1.058482656250000000e+05
-1.058569218750000000e+05
-1.058485156250000000e+05
-1.058481093750000000e+05
-1.058472734375000000e+05
-1.058571562500000000e+05
-1.058581484375000000e+05
-1.058545781250000000e+05
-1.058565859375000000e+05
-1.058523203125000000e+05
-1.058566953125000000e+05
-1.058568828125000000e+05
-1.058409843750000000e+05
-1.058578046875000000e+05
-1.058569140625000000e+05
-1.058475859375000000e+05
-1.058535781250000000e+05
-1.058437500000000000e+05
-1.058555937500000000e+05
-1.058545156250000000e+05
-1.058457343750000000e+05
-1.058523984375000000e+05
-1.058497265625000000e+05
-1.058551562500000000e+05
-1.058409453125000000e+05
-1.058528359375000000e+05
-1.058461171875000000e+05
-1.058499921875000000e+05
-1.058526796875000000e+05
-1.058453750000000000e+05
-1.058545156250000000e+05
-1.058496484375000000e+05
-1.058536875000000000e+05
-1.058546093750000000e+05
-1.058530703125000000e+05
-1.058576250000000000e+05
-1.058488281250000000e+05
-1.058452031250000000e+05
-1.058438281250000000e+05
-1.058562890625000000e+05
-1.058439453125000000e+05
-1.058530468750000000e+05
-1.058468437500000000e+05
-1.058482734375000000e+05
-1.058513046875000000e+05
-1.058561250000000000e+05
-1.058533359375000000e+05
-1.058538046875000000e+05
-1.058479062500000000e+05
-1.058501718750000000e+05
-1.058496484375000000e+05
-1.058565000000000000e+05
-1.058569765625000000e+05
-1.058475000000000000e+05
-1.058527265625000000e+05
-1.058482265625000000e+05
-1.058549531250000000e+05
-1.058541796875000000e+05
-1.058551093750000000e+05
-1.058413281250000000e+05
-1.058547187500000000e+05
-1.058570156250000000e+05
-1.058564296875000000e+05
-1.058500781250000000e+05
-1.058572265625000000e+05
-1.058586718750000000e+05
-1.058563828125000000e+05
-1.058443750000000000e+05
-1.058532578125000000e+05
-1.058525546875000000e+05
-1.058511718750000000e+05
-1.058480312500000000e+05
-1.058556718750000000e+05
-1.058570859375000000e+05
-1.058460390625000000e+05
-1.058439921875000000e+05
-1.058523046875000000e+05
-1.058407812500000000e+05
-1.058456093750000000e+05
-1.058559921875000000e+05
