-1.872235298156738281e+01 -2.905295193195343018e-01 7.641762256622314453e+00 -2.905295193195343018e-01 -3.046551132202148438e+01 -1.268217182159423828e+01 7.641762256622314453e+00 -1.268217182159423828e+01 -4.097859191894531250e+01
-4.551918792724609375e+01 1.630354499816894531e+01 4.368537902832031250e+00 1.630354499816894531e+01 -5.764969635009765625e+01 -1.007281589508056641e+01 4.368537902832031250e+00 -1.007281589508056641e+01 -1.034155654907226562e+02
-3.105553627014160156e+01 -4.609612464904785156e+00 3.677717447280883789e+00 -4.609612464904785156e+00 -5.364640426635742188e+01 -3.320444345474243164e+00 3.677717447280883789e+00 -3.320444345474243164e+00 -6.184610748291015625e+01
-4.667172241210937500e+01 8.665400505065917969e+00 -6.834543704986572266e+00 8.665400505065917969e+00 -3.293780136108398438e+01 -2.782717049121856689e-01 -6.834543704986572266e+00 -2.782717049121856689e-01 -4.949076080322265625e+01
-8.496088409423828125e+01 5.210750579833984375e+00 3.858120346069335938e+01 5.210750579833984375e+00 -7.835604095458984375e+01 8.610731124877929688e+00 3.858120346069335938e+01 8.610731124877929688e+00 -8.332644653320312500e+01
-1.452747192382812500e+02 -1.255654525756835938e+01 -1.927892112731933594e+01 -1.255654525756835938e+01 -1.071285629272460938e+02 1.619732856750488281e+01 -1.927892112731933594e+01 1.619732856750488281e+01 -1.633637390136718750e+02
-1.482499847412109375e+02 3.073299407958984375e+01 -1.020878982543945312e+01 3.073299407958984375e+01 -1.147534179687500000e+02 4.250792860984802246e-01 -1.020878982543945312e+01 4.250792860984802246e-01 -2.294124908447265625e+02
-7.531375885009765625e+01 1.892317390441894531e+01 6.470559597015380859e+00 1.892317390441894531e+01 -8.413616943359375000e+01 -1.813338661193847656e+01 6.470559597015380859e+00 -1.813338661193847656e+01 -1.558534088134765625e+02
-6.261917114257812500e+01 2.497181320190429688e+01 -8.829777717590332031e+00 2.497181320190429688e+01 -6.119291687011718750e+01 4.699348449707031250e+00 -8.829777717590332031e+00 4.699348449707031250e+00 -1.339656066894531250e+02
-8.726503753662109375e+01 3.906421661376953125e+01 1.033299922943115234e+01 3.906421661376953125e+01 -1.262444381713867188e+02 -1.249923706054687500e+01 1.033299922943115234e+01 -1.249923706054687500e+01 -1.725832366943359375e+02
-2.964023399353027344e+01 7.459585189819335938e+00 8.729454994201660156e+00 7.459585189819335938e+00 -3.477403259277343750e+01 1.194432544708251953e+01 8.729454994201660156e+00 1.194432544708251953e+01 -3.875485610961914062e+01
-7.085883331298828125e+01 1.078552436828613281e+01 -1.383221054077148438e+01 1.078552436828613281e+01 -6.507048797607421875e+01 -1.314993000030517578e+01 -1.383221054077148438e+01 -1.314993000030517578e+01 -9.087464904785156250e+01
-8.575007629394531250e+01 4.026535034179687500e+01 -5.930932044982910156e+00 4.026535034179687500e+01 -5.811973571777343750e+01 -1.480409908294677734e+01 -5.930932044982910156e+00 -1.480409908294677734e+01 -2.554112243652343750e+02
-8.405870056152343750e+01 6.165667057037353516e+00 8.923098564147949219e+00 6.165667057037353516e+00 -7.122355651855468750e+01 8.356458663940429688e+00 8.923098564147949219e+00 8.356458663940429688e+00 -1.162394714355468750e+02
-2.137984848022460938e+01 -7.377469539642333984e+00 -2.997120141983032227e+00 -7.377469539642333984e+00 -1.298786544799804688e+01 -9.914408683776855469e+00 -2.997120141983032227e+00 -9.914408683776855469e+00 -2.857162475585937500e+01
-5.394663619995117188e+01 2.449893760681152344e+01 -1.774778747558593750e+01 2.449893760681152344e+01 -7.050408172607421875e+01 1.835721588134765625e+01 -1.774778747558593750e+01 1.835721588134765625e+01 -9.176902770996093750e+01
-1.529427642822265625e+02 -3.172015953063964844e+01 2.817186355590820312e+01 -3.172015953063964844e+01 -4.494936370849609375e+01 2.505082130432128906e+01 2.817186355590820312e+01 2.505082130432128906e+01 -1.048089294433593750e+02
-6.177551651000976562e+01 -1.186919021606445312e+01 1.998155474662780762e+00 -1.186919021606445312e+01 -4.966800308227539062e+01 1.830100250244140625e+01 1.998155474662780762e+00 1.830100250244140625e+01 -1.002358932495117188e+02
-7.400855255126953125e+01 -4.275457859039306641e+00 5.310425758361816406e+00 -4.275457859039306641e+00 -8.033395385742187500e+01 8.566939353942871094e+00 5.310425758361816406e+00 8.566939353942871094e+00 -1.241827774047851562e+02
-9.669798278808593750e+01 1.134392070770263672e+01 6.318336009979248047e+00 1.134392070770263672e+01 -1.063951721191406250e+02 2.819741630554199219e+01 6.318336009979248047e+00 2.819741630554199219e+01 -1.305927734375000000e+02
-8.947736358642578125e+01 -5.394287705421447754e-01 8.977917671203613281e+00 -5.394287705421447754e-01 -8.041860198974609375e+01 2.301192474365234375e+01 8.977917671203613281e+00 2.301192474365234375e+01 -1.533506469726562500e+02
-7.347963714599609375e+01 8.967057228088378906e+00 -2.686715602874755859e+00 8.967057228088378906e+00 -7.224559783935546875e+01 1.075985240936279297e+01 -2.686715602874755859e+00 1.075985240936279297e+01 -9.578873443603515625e+01
-5.303605651855468750e+01 8.175746202468872070e-01 -2.284433841705322266e+00 8.175746202468872070e-01 -4.142749786376953125e+01 2.158895015716552734e+00 -2.284433841705322266e+00 2.158895015716552734e+00 -6.088620758056640625e+01
-5.919727325439453125e+01 3.114415740966796875e+01 3.688974380493164062e+00 3.114415740966796875e+01 -7.109960937500000000e+01 -4.889192104339599609e+00 3.688974380493164062e+00 -4.889192104339599609e+00 -9.813026428222656250e+01
-8.744880676269531250e+01 7.097118377685546875e+00 -1.676947593688964844e+01 7.097118377685546875e+00 -3.970846939086914062e+01 2.290645360946655273e+00 -1.676947593688964844e+01 2.290645360946655273e+00 -1.163286361694335938e+02
-8.284289550781250000e+01 3.846805191040039062e+01 -2.422897148132324219e+01 3.846805191040039062e+01 -6.608149719238281250e+01 -2.443238735198974609e+00 -2.422897148132324219e+01 -2.443238735198974609e+00 -8.326254272460937500e+01
-8.842733001708984375e+01 3.237459182739257812e+01 -6.298452377319335938e+00 3.237459182739257812e+01 -7.247941589355468750e+01 -1.105674552917480469e+01 -6.298452377319335938e+00 -1.105674552917480469e+01 -2.485696563720703125e+02
-1.166088180541992188e+02 3.195186042785644531e+01 1.675647926330566406e+01 3.195186042785644531e+01 -1.261298751831054688e+02 -1.841034317016601562e+01 1.675647926330566406e+01 -1.841034317016601562e+01 -2.070824737548828125e+02
-8.470922088623046875e+01 1.428488636016845703e+01 1.952581405639648438e+01 1.428488636016845703e+01 -9.274249267578125000e+01 1.365071773529052734e+01 1.952581405639648438e+01 1.365071773529052734e+01 -1.249380493164062500e+02
-2.558909797668457031e+01 -9.552903771400451660e-01 -9.621263504028320312e+00 -9.552903771400451660e-01 -9.223937988281250000e+00 -3.296203136444091797e+00 -9.621263504028320312e+00 -3.296203136444091797e+00 -1.161221885681152344e+01
-7.138174438476562500e+01 3.539778518676757812e+01 -1.488124275207519531e+01 3.539778518676757812e+01 -8.071193695068359375e+01 -7.261920452117919922e+00 -1.488124275207519531e+01 -7.261920452117919922e+00 -1.574639434814453125e+02
-7.382676696777343750e+01 -1.758900403976440430e+00 -8.659824371337890625e+00 -1.758900403976440430e+00 -4.884486770629882812e+01 1.377577424049377441e+00 -8.659824371337890625e+00 1.377577424049377441e+00 -5.448062133789062500e+01
-4.028895187377929688e+01 1.003477382659912109e+01 2.716253757476806641e+00 1.003477382659912109e+01 -4.710111999511718750e+01 -9.500778198242187500e+00 2.716253757476806641e+00 -9.500778198242187500e+00 -8.847989654541015625e+01
-1.674813537597656250e+02 -2.700781440734863281e+01 1.210704135894775391e+01 -2.700781440734863281e+01 -7.263359832763671875e+01 8.233429908752441406e+00 1.210704135894775391e+01 8.233429908752441406e+00 -1.058505325317382812e+02
-6.764019775390625000e+01 4.897060871124267578e+00 1.172480678558349609e+01 4.897060871124267578e+00 -1.031161499023437500e+02 9.804147720336914062e+00 1.172480678558349609e+01 9.804147720336914062e+00 -1.605723571777343750e+02
-5.092061996459960938e+01 1.844584083557128906e+01 -4.560966968536376953e+00 1.844584083557128906e+01 -6.074223709106445312e+01 -5.543576240539550781e+00 -4.560966968536376953e+00 -5.543576240539550781e+00 -9.931194305419921875e+01
-5.756841659545898438e+01 5.390525341033935547e+00 -3.568463087081909180e+00 5.390525341033935547e+00 -6.150720596313476562e+01 -3.907735824584960938e+00 -3.568463087081909180e+00 -3.907735824584960938e+00 -8.693730926513671875e+01
-1.756258392333984375e+01 -8.182650566101074219e+00 1.261395359039306641e+01 -8.182650566101074219e+00 -3.632249832153320312e+01 -1.244247817993164062e+01 1.261395359039306641e+01 -1.244247817993164062e+01 -2.831675338745117188e+01
-3.861754226684570312e+01 7.434128761291503906e+00 -1.291689586639404297e+01 7.434128761291503906e+00 -3.753035736083984375e+01 -7.566897869110107422e+00 -1.291689586639404297e+01 -7.566897869110107422e+00 -6.593679046630859375e+01
-7.553485870361328125e+01 2.575878143310546875e+01 -1.982701683044433594e+01 2.575878143310546875e+01 -7.376122283935546875e+01 1.029254531860351562e+01 -1.982701683044433594e+01 1.029254531860351562e+01 -1.524304199218750000e+02
2.540223360061645508e+00 -4.015147209167480469e+00 4.608833789825439453e+00 -4.015147209167480469e+00 -1.802443122863769531e+01 5.414866447448730469e+00 4.608833789825439453e+00 5.414866447448730469e+00 -3.109018516540527344e+01
-8.185971069335937500e+01 3.747728729248046875e+01 1.360662841796875000e+01 3.747728729248046875e+01 -1.088558044433593750e+02 1.045220565795898438e+01 1.360662841796875000e+01 1.045220565795898438e+01 -2.106750183105468750e+02
-1.096226806640625000e+02 4.965275955200195312e+01 -1.927717018127441406e+01 4.965275955200195312e+01 -1.225813064575195312e+02 9.071734428405761719e+00 -1.927717018127441406e+01 9.071734428405761719e+00 -2.275801696777343750e+02
-6.623542022705078125e+01 2.019663429260253906e+01 -1.595578312873840332e+00 2.019663429260253906e+01 -5.112147521972656250e+01 2.901066541671752930e+00 -1.595578312873840332e+00 2.901066541671752930e+00 -1.061057281494140625e+02
-4.280083847045898438e+01 1.354191207885742188e+01 2.097558593750000000e+01 1.354191207885742188e+01 -3.588755416870117188e+01 -2.603334045410156250e+01 2.097558593750000000e+01 -2.603334045410156250e+01 -7.539088439941406250e+01
-3.222590255737304688e+01 -2.122107505798339844e+01 8.213826179504394531e+00 -2.122107505798339844e+01 -4.775599002838134766e+00 -3.973787069320678711e+00 8.213826179504394531e+00 -3.973787069320678711e+00 -1.840426063537597656e+01
-6.705004882812500000e+01 -1.820791482925415039e+00 8.497740626335144043e-01 -1.820791482925415039e+00 -6.070496368408203125e+01 -1.525792026519775391e+01 8.497740626335144043e-01 -1.525792026519775391e+01 -5.763955307006835938e+01
-6.862025451660156250e+01 1.741141700744628906e+01 1.135306739807128906e+01 1.741141700744628906e+01 -9.174626159667968750e+01 1.180607128143310547e+01 1.135306739807128906e+01 1.180607128143310547e+01 -1.043845596313476562e+02
-5.262036895751953125e+01 3.477621793746948242e+00 -1.169281578063964844e+01 3.477621793746948242e+00 -6.642759704589843750e+01 5.286106586456298828e+00 -1.169281578063964844e+01 5.286106586456298828e+00 -9.312951660156250000e+01
-6.638906097412109375e+01 4.556900560855865479e-01 1.654769134521484375e+01 4.556900560855865479e-01 -5.777507781982421875e+01 1.100952529907226562e+01 1.654769134521484375e+01 1.100952529907226562e+01 -1.081195373535156250e+02
-1.131935653686523438e+02 1.504224109649658203e+01 2.350910758972167969e+01 1.504224109649658203e+01 -1.065259170532226562e+02 3.829864501953125000e+01 2.350910758972167969e+01 3.829864501953125000e+01 -1.653693695068359375e+02
-4.853078460693359375e+01 2.351285171508789062e+01 -1.567383193969726562e+01 2.351285171508789062e+01 -5.605947875976562500e+01 -8.620086669921875000e+00 -1.567383193969726562e+01 -8.620086669921875000e+00 -6.921967315673828125e+01
-6.818653869628906250e+01 1.554085731506347656e+01 6.931262016296386719e+00 1.554085731506347656e+01 -6.548393249511718750e+01 7.791928291320800781e+00 6.931262016296386719e+00 7.791928291320800781e+00 -6.754326629638671875e+01
-5.284078598022460938e+01 -9.966836929321289062e+00 1.271197032928466797e+01 -9.966836929321289062e+00 -4.433445739746093750e+01 1.127747821807861328e+01 1.271197032928466797e+01 1.127747821807861328e+01 -7.169429016113281250e+01
-4.457567596435546875e+01 -1.699583625793457031e+01 1.496441078186035156e+01 -1.699583625793457031e+01 -4.740080356597900391e+00 8.152007102966308594e+00 1.496441078186035156e+01 8.152007102966308594e+00 -2.619963836669921875e+01
-4.091328430175781250e+01 2.279075431823730469e+01 -8.166762351989746094e+00 2.279075431823730469e+01 -6.248061752319335938e+01 4.723789215087890625e+00 -8.166762351989746094e+00 4.723789215087890625e+00 -7.828218078613281250e+01
-2.467775154113769531e+01 1.130452632904052734e+01 5.008920192718505859e+00 1.130452632904052734e+01 -6.136671829223632812e+01 -1.032425642013549805e+00 5.008920192718505859e+00 -1.032425642013549805e+00 -7.583403778076171875e+01
-8.504063415527343750e+01 -1.431937122344970703e+01 -6.913923263549804688e+00 -1.431937122344970703e+01 -6.527224731445312500e+01 1.830976104736328125e+01 -6.913923263549804688e+00 1.830976104736328125e+01 -1.186843643188476562e+02
-8.274842071533203125e+01 3.245159912109375000e+01 -9.532964825630187988e-01 3.245159912109375000e+01 -8.829468536376953125e+01 -1.132241249084472656e+00 -9.532964825630187988e-01 -1.132241249084472656e+00 -2.047000885009765625e+02
-7.184517669677734375e+01 2.193866539001464844e+01 -5.284739971160888672e+00 2.193866539001464844e+01 -6.062203216552734375e+01 -1.813782155513763428e-01 -5.284739971160888672e+00 -1.813782155513763428e-01 -1.035954666137695312e+02
-1.667652130126953125e+02 -3.385371017456054688e+01 2.379441261291503906e+01 -3.385371017456054688e+01 -5.830128479003906250e+01 6.180269718170166016e+00 2.379441261291503906e+01 6.180269718170166016e+00 -6.806480407714843750e+01
-8.707723999023437500e+01 2.881683731079101562e+01 -1.987912368774414062e+01 2.881683731079101562e+01 -1.004267578125000000e+02 4.494653642177581787e-01 -1.987912368774414062e+01 4.494653642177581787e-01 -2.117912445068359375e+02
-2.869014358520507812e+01 1.448721313476562500e+01 3.460259675979614258e+00 1.448721313476562500e+01 -2.090235900878906250e+01 1.425652217864990234e+01 3.460259675979614258e+00 1.425652217864990234e+01 -6.185673522949218750e+01
-1.212441787719726562e+02 6.546156311035156250e+01 -4.826866531372070312e+01 6.546156311035156250e+01 -1.223848876953125000e+02 1.292517948150634766e+01 -4.826866531372070312e+01 1.292517948150634766e+01 -2.690783386230468750e+02
-7.152624511718750000e+01 -9.123561859130859375e+00 6.591249704360961914e-01 -9.123561859130859375e+00 -2.486211776733398438e+01 1.215336513519287109e+01 6.591249704360961914e-01 1.215336513519287109e+01 -8.282575988769531250e+01
-3.682212448120117188e+01 -1.217642116546630859e+01 2.291782617568969727e+00 -1.217642116546630859e+01 -1.299425315856933594e+01 3.927818536758422852e+00 2.291782617568969727e+00 3.927818536758422852e+00 -1.696698760986328125e+01
-1.157342910766601562e+02 2.423340606689453125e+01 -2.632938194274902344e+01 2.423340606689453125e+01 -9.923934936523437500e+01 -1.547233486175537109e+01 -2.632938194274902344e+01 -1.547233486175537109e+01 -2.905837097167968750e+02
-1.561025857925415039e+00 -1.517844486236572266e+01 8.106086730957031250e+00 -1.517844486236572266e+01 4.238176822662353516e+00 8.786036372184753418e-01 8.106086730957031250e+00 8.786036372184753418e-01 -2.450152778625488281e+01
-1.177192230224609375e+02 -2.863844680786132812e+01 3.178922462463378906e+01 -2.863844680786132812e+01 -3.258321380615234375e+01 1.443981170654296875e+01 3.178922462463378906e+01 1.443981170654296875e+01 -9.940847778320312500e+01
-7.704357147216796875e+01 3.055157279968261719e+01 1.776095008850097656e+01 3.055157279968261719e+01 -7.907689666748046875e+01 -3.357409238815307617e+00 1.776095008850097656e+01 -3.357409238815307617e+00 -1.179832458496093750e+02
-9.986734008789062500e+01 4.379626083374023438e+01 -2.739493370056152344e+01 4.379626083374023438e+01 -9.795036315917968750e+01 5.093454360961914062e+00 -2.739493370056152344e+01 5.093454360961914062e+00 -1.716730346679687500e+02
-4.266585540771484375e+01 -5.614582300186157227e-01 -9.225528717041015625e+00 -5.614582300186157227e-01 -4.894510269165039062e+01 1.406824207305908203e+01 -9.225528717041015625e+00 1.406824207305908203e+01 -9.247393035888671875e+01
-3.487936782836914062e+01 1.124752712249755859e+01 2.054231834411621094e+01 1.124752712249755859e+01 -7.227515411376953125e+01 -6.642375946044921875e+00 2.054231834411621094e+01 -6.642375946044921875e+00 -9.748408508300781250e+01
-4.566921997070312500e+01 -5.004217624664306641e+00 -1.140221655368804932e-01 -5.004217624664306641e+00 -3.569009017944335938e+01 -8.402938842773437500e+00 -1.140221655368804932e-01 -8.402938842773437500e+00 -1.692363166809082031e+01
-5.400397491455078125e+01 2.183704757690429688e+01 -4.167517662048339844e+00 2.183704757690429688e+01 -5.992147827148437500e+01 9.019484519958496094e+00 -4.167517662048339844e+00 9.019484519958496094e+00 -1.149327392578125000e+02
-3.036667442321777344e+01 -9.117869734764099121e-01 -2.805568456649780273e+00 -9.117869734764099121e-01 -3.094820213317871094e+01 9.809135437011718750e+00 -2.805568456649780273e+00 9.809135437011718750e+00 -5.408859252929687500e+01
-1.154880905151367188e+02 2.450517654418945312e+01 -1.316916346549987793e+00 2.450517654418945312e+01 -1.012787094116210938e+02 -1.653203773498535156e+01 -1.316916346549987793e+00 -1.653203773498535156e+01 -1.887681274414062500e+02
-4.836714553833007812e+01 1.289338207244873047e+01 9.604333877563476562e+00 1.289338207244873047e+01 -4.838624572753906250e+01 2.399520874023437500e+00 9.604333877563476562e+00 2.399520874023437500e+00 -6.956121063232421875e+01
-1.183046340942382812e+02 1.091711902618408203e+01 -1.083194637298583984e+01 1.091711902618408203e+01 -7.343168640136718750e+01 -1.167238998413085938e+01 -1.083194637298583984e+01 -1.167238998413085938e+01 -1.257351379394531250e+02
-9.980000305175781250e+01 2.997324943542480469e+01 -2.867762756347656250e+01 2.997324943542480469e+01 -8.455778503417968750e+01 4.749807357788085938e+00 -2.867762756347656250e+01 4.749807357788085938e+00 -1.872455444335937500e+02
-6.135542297363281250e+01 5.317572116851806641e+00 1.826503992080688477e+00 5.317572116851806641e+00 -7.707022094726562500e+01 1.389402294158935547e+01 1.826503992080688477e+00 1.389402294158935547e+01 -4.274301147460937500e+01
-4.469348144531250000e+01 7.336295604705810547e+00 -4.208439350128173828e+00 7.336295604705810547e+00 -5.030265045166015625e+01 1.229730987548828125e+01 -4.208439350128173828e+00 1.229730987548828125e+01 -2.229815673828125000e+01
-8.459533691406250000e+01 -7.426461696624755859e+00 5.633462905883789062e+00 -7.426461696624755859e+00 -6.730194854736328125e+01 -1.590671777725219727e+00 5.633462905883789062e+00 -1.590671777725219727e+00 -9.120467376708984375e+01
-7.165858459472656250e+01 1.462691211700439453e+01 1.064049243927001953e+01 1.462691211700439453e+01 -8.263067626953125000e+01 -7.409862041473388672e+00 1.064049243927001953e+01 -7.409862041473388672e+00 -1.514043121337890625e+02
-9.286168670654296875e+01 1.694650840759277344e+01 1.828517341613769531e+01 1.694650840759277344e+01 -7.776635742187500000e+01 -6.436284184455871582e-01 1.828517341613769531e+01 -6.436284184455871582e-01 -8.556101989746093750e+01
-3.523294448852539062e+01 9.894958496093750000e+00 2.088413238525390625e+01 9.894958496093750000e+00 -3.717621612548828125e+01 -1.713552284240722656e+01 2.088413238525390625e+01 -1.713552284240722656e+01 -1.188952560424804688e+02
-2.431313896179199219e+01 2.715915918350219727e+00 1.549202919006347656e+00 2.715915918350219727e+00 -6.995024681091308594e+00 -1.826559257507324219e+01 1.549202919006347656e+00 -1.826559257507324219e+01 -2.279490661621093750e+01
-1.162698364257812500e+02 5.397730350494384766e+00 2.688290405273437500e+01 5.397730350494384766e+00 -1.112254791259765625e+02 1.514168262481689453e+01 2.688290405273437500e+01 1.514168262481689453e+01 -1.731911010742187500e+02
-1.358877105712890625e+02 1.938573074340820312e+01 -6.236662864685058594e+00 1.938573074340820312e+01 -8.240853881835937500e+01 -2.004051208496093750e+01 -6.236662864685058594e+00 -2.004051208496093750e+01 -1.841949462890625000e+02
-6.861487579345703125e+01 -5.546703338623046875e+00 1.069474816322326660e+00 -5.546703338623046875e+00 -8.629903411865234375e+01 2.427323913574218750e+01 1.069474816322326660e+00 2.427323913574218750e+01 -8.839978790283203125e+01
-4.246310806274414062e+01 -3.130828857421875000e+00 4.139066219329833984e+00 -3.130828857421875000e+00 -2.870366096496582031e+01 2.722310066223144531e+00 4.139066219329833984e+00 2.722310066223144531e+00 -9.768816947937011719e+00
-6.230399703979492188e+01 1.639950942993164062e+01 7.308974742889404297e+00 1.639950942993164062e+01 -5.194507980346679688e+01 5.241992950439453125e+00 7.308974742889404297e+00 5.241992950439453125e+00 -9.271559906005859375e+01
-9.455834960937500000e+01 3.471313476562500000e+01 2.233180999755859375e+01 3.471313476562500000e+01 -8.277716827392578125e+01 -1.849593544006347656e+01 2.233180999755859375e+01 -1.849593544006347656e+01 -1.376217803955078125e+02
-8.484206390380859375e+01 1.649454116821289062e+01 -1.692033386230468750e+01 1.649454116821289062e+01 -7.582352447509765625e+01 -5.528954982757568359e+00 -1.692033386230468750e+01 -5.528954982757568359e+00 -2.228759918212890625e+02
-2.089036941528320312e+01 -3.891190767288208008e+00 1.742864608764648438e+01 -3.891190767288208008e+00 -2.817308044433593750e+01 9.414421081542968750e+00 1.742864608764648438e+01 9.414421081542968750e+00 -4.512518692016601562e+01
-6.781252288818359375e+01 -1.186927795410156250e+01 -7.771576881408691406e+00 -1.186927795410156250e+01 -5.276884841918945312e+01 2.074214458465576172e+00 -7.771576881408691406e+00 2.074214458465576172e+00 -7.180546569824218750e+01
-1.633884811401367188e+01 4.076829433441162109e+00 1.756025403738021851e-01 4.076829433441162109e+00 -1.861405181884765625e+01 -4.916620254516601562e+00 1.756025403738021851e-01 -4.916620254516601562e+00 -4.394183731079101562e+01
-8.263424682617187500e+01 3.043152618408203125e+01 1.322273373603820801e+00 3.043152618408203125e+01 -8.291221618652343750e+01 -1.630445289611816406e+01 1.322273373603820801e+00 -1.630445289611816406e+01 -1.337273559570312500e+02
-1.531655502319335938e+01 -2.082283496856689453e+00 2.215594863891601562e+01 -2.082283496856689453e+00 -6.609033966064453125e+01 -6.772832870483398438e-01 2.215594863891601562e+01 -6.772832870483398438e-01 -3.114581871032714844e+01
-1.067081375122070312e+02 -7.514460563659667969e+00 -5.441205978393554688e+00 -7.514460563659667969e+00 -8.699687957763671875e+01 1.002700209617614746e+00 -5.441205978393554688e+00 1.002700209617614746e+00 -9.385700988769531250e+01
-4.091950607299804688e+01 1.284459686279296875e+01 -2.101293325424194336e+00 1.284459686279296875e+01 -3.260368728637695312e+01 3.512303352355957031e+00 -2.101293325424194336e+00 3.512303352355957031e+00 -4.782117843627929688e+01
-9.933858489990234375e+01 4.687518692016601562e+01 -2.285923576354980469e+01 4.687518692016601562e+01 -9.695911407470703125e+01 4.978858947753906250e+00 -2.285923576354980469e+01 4.978858947753906250e+00 -1.967424468994140625e+02
-9.205543518066406250e+01 1.641210365295410156e+01 -1.548108959197998047e+01 1.641210365295410156e+01 -8.671328735351562500e+01 -1.664385604858398438e+01 -1.548108959197998047e+01 -1.664385604858398438e+01 -2.180957336425781250e+02
-9.893370819091796875e+01 -1.345051288604736328e+01 2.856744384765625000e+01 -1.345051288604736328e+01 -6.628390502929687500e+01 1.947320938110351562e+01 2.856744384765625000e+01 1.947320938110351562e+01 -1.549314117431640625e+02
-7.918840408325195312e+00 1.025758266448974609e+01 -1.166914749145507812e+01 1.025758266448974609e+01 9.003912925720214844e+00 2.045848083496093750e+01 -1.166914749145507812e+01 2.045848083496093750e+01 -3.155362510681152344e+01
-1.117587127685546875e+02 3.995889282226562500e+01 2.438743114471435547e+00 3.995889282226562500e+01 -1.315277252197265625e+02 -2.566976356506347656e+01 2.438743114471435547e+00 -2.566976356506347656e+01 -3.148113708496093750e+02
-7.022747802734375000e+01 3.705618667602539062e+01 -7.056130886077880859e+00 3.705618667602539062e+01 -7.800353240966796875e+01 1.123260402679443359e+01 -7.056130886077880859e+00 1.123260402679443359e+01 -1.531877746582031250e+02
-1.228820877075195312e+02 4.964930343627929688e+01 5.596791744232177734e+00 4.964930343627929688e+01 -1.213034439086914062e+02 -9.216945648193359375e+00 5.596791744232177734e+00 -9.216945648193359375e+00 -1.752626953125000000e+02
-1.106632080078125000e+02 -4.593079090118408203e+00 4.704509735107421875e+00 -4.593079090118408203e+00 -4.735412216186523438e+01 3.043180704116821289e+00 4.704509735107421875e+00 3.043180704116821289e+00 -7.901010131835937500e+01
-5.320125579833984375e+01 1.724979591369628906e+01 -1.867171096801757812e+01 1.724979591369628906e+01 -9.557701110839843750e+01 -5.842977046966552734e+00 -1.867171096801757812e+01 -5.842977046966552734e+00 -1.858469238281250000e+02
-2.189516067504882812e+01 1.794631958007812500e+01 -2.696239948272705078e+00 1.794631958007812500e+01 -2.653680801391601562e+01 1.460825443267822266e+00 -2.696239948272705078e+00 1.460825443267822266e+00 -2.684790611267089844e+01
-7.166752624511718750e+01 1.135993289947509766e+01 -3.277441024780273438e+00 1.135993289947509766e+01 -3.890744781494140625e+01 -4.169879436492919922e+00 -3.277441024780273438e+00 -4.169879436492919922e+00 -4.168626785278320312e+01
-6.046237945556640625e+01 1.838171386718750000e+01 -8.810039520263671875e+00 1.838171386718750000e+01 -5.338989639282226562e+01 2.240327072143554688e+01 -8.810039520263671875e+00 2.240327072143554688e+01 -1.080520782470703125e+02
-1.786272735595703125e+02 -1.072423076629638672e+01 -1.236604595184326172e+01 -1.072423076629638672e+01 -1.025902557373046875e+02 7.367382049560546875e+00 -1.236604595184326172e+01 7.367382049560546875e+00 -1.289592895507812500e+02
-8.213399505615234375e+01 1.214610767364501953e+01 6.811106681823730469e+00 1.214610767364501953e+01 -7.664112091064453125e+01 -7.528776645660400391e+00 6.811106681823730469e+00 -7.528776645660400391e+00 -1.427889709472656250e+02
-7.593845367431640625e+01 2.263657569885253906e+01 -1.119548988342285156e+01 2.263657569885253906e+01 -6.994534301757812500e+01 -3.189787864685058594e+00 -1.119548988342285156e+01 -3.189787864685058594e+00 -1.457477111816406250e+02
-6.137608718872070312e+01 1.423842525482177734e+01 -2.462211036682128906e+01 1.423842525482177734e+01 -8.357214355468750000e+01 1.222340941429138184e+00 -2.462211036682128906e+01 1.222340941429138184e+00 -1.263905181884765625e+02
-3.066714859008789062e+01 -4.255818367004394531e+00 -7.377380371093750000e+00 -4.255818367004394531e+00 -4.452486419677734375e+01 5.464879512786865234e+00 -7.377380371093750000e+00 5.464879512786865234e+00 -1.105452651977539062e+02
-8.335853576660156250e+01 1.801530265808105469e+01 2.471065711975097656e+01 1.801530265808105469e+01 -1.160662841796875000e+02 -1.298727703094482422e+01 2.471065711975097656e+01 -1.298727703094482422e+01 -1.619223785400390625e+02
-5.741336059570312500e+01 3.067417907714843750e+01 -1.327940273284912109e+01 3.067417907714843750e+01 -7.480640411376953125e+01 4.210230350494384766e+00 -1.327940273284912109e+01 4.210230350494384766e+00 -1.403403930664062500e+02
-8.323822784423828125e+01 6.877382278442382812e+00 3.027382659912109375e+01 6.877382278442382812e+00 -6.561750030517578125e+01 2.805736160278320312e+01 3.027382659912109375e+01 2.805736160278320312e+01 -1.630909271240234375e+02
-5.398786544799804688e+01 1.100174713134765625e+01 1.557963943481445312e+01 1.100174713134765625e+01 -3.447884368896484375e+01 -3.101769924163818359e+00 1.557963943481445312e+01 -3.101769924163818359e+00 -6.635429382324218750e+01
-1.135714340209960938e+02 -2.766606569290161133e+00 1.455352115631103516e+01 -2.766606569290161133e+00 -9.612965393066406250e+01 7.426354885101318359e-01 1.455352115631103516e+01 7.426354885101318359e-01 -1.440461425781250000e+02
-3.118168640136718750e+01 1.692969703674316406e+01 5.240169525146484375e+00 1.692969703674316406e+01 -2.799537658691406250e+01 1.547363471984863281e+01 5.240169525146484375e+00 1.547363471984863281e+01 -4.311673355102539062e+01
-5.423442077636718750e+01 1.927374076843261719e+01 1.601051521301269531e+01 1.927374076843261719e+01 -9.280332946777343750e+01 4.388512611389160156e+00 1.601051521301269531e+01 4.388512611389160156e+00 -2.075267791748046875e+02
-1.168453750610351562e+02 7.395121574401855469e+00 2.124471664428710938e+01 7.395121574401855469e+00 -1.003528366088867188e+02 3.731892776489257812e+01 2.124471664428710938e+01 3.731892776489257812e+01 -1.531129760742187500e+02
-7.405318450927734375e+01 8.429611206054687500e+00 -1.838729476928710938e+01 8.429611206054687500e+00 -6.764220428466796875e+01 1.352316188812255859e+01 -1.838729476928710938e+01 1.352316188812255859e+01 -9.927417755126953125e+01
-2.583711242675781250e+01 -3.498666286468505859e+00 -1.085157299041748047e+01 -3.498666286468505859e+00 -3.137853050231933594e+01 9.087472558021545410e-01 -1.085157299041748047e+01 9.087472558021545410e-01 -3.594018936157226562e+01
-8.358631896972656250e+01 1.707843780517578125e+01 2.543609237670898438e+01 1.707843780517578125e+01 -9.267202758789062500e+01 -7.205397129058837891e+00 2.543609237670898438e+01 -7.205397129058837891e+00 -1.099587478637695312e+02
-1.423759613037109375e+02 -2.019134140014648438e+01 1.014266729354858398e+00 -2.019134140014648438e+01 -9.058235168457031250e+01 -3.729800224304199219e+00 1.014266729354858398e+00 -3.729800224304199219e+00 -1.211321105957031250e+02