1.751800000000000068e+01 0.000000000000000000e+00 0.000000000000000000e+00 -8.759000000000000341e+00 1.517099999999999937e+01 0.000000000000000000e+00 0.000000000000000000e+00 0.000000000000000000e+00 1.680699999999999861e+01
1.750199999999999889e+01 0.000000000000000000e+00 0.000000000000000000e+00 -8.750999999999999446e+00 1.515700000000000003e+01 0.000000000000000000e+00 0.000000000000000000e+00 0.000000000000000000e+00 1.679100000000000037e+01
1.751800000000000068e+01 0.000000000000000000e+00 0.000000000000000000e+00 -8.759000000000000341e+00 1.517099999999999937e+01 0.000000000000000000e+00 0.000000000000000000e+00 0.000000000000000000e+00 1.680600000000000094e+01
1.750799999999999912e+01 0.000000000000000000e+00 0.000000000000000000e+00 -8.753999999999999559e+00 1.516300000000000026e+01 0.000000000000000000e+00 0.000000000000000000e+00 0.000000000000000000e+00 1.679799999999999827e+01
1.752599999999999980e+01 0.000000000000000000e+00 0.000000000000000000e+00 -8.762999999999999901e+00 1.517800000000000082e+01 0.000000000000000000e+00 0.000000000000000000e+00 0.000000000000000000e+00 1.681500000000000128e+01
1.749699999999999989e+01 0.000000000000000000e+00 0.000000000000000000e+00 -8.749000000000000554e+00 1.515300000000000047e+01 0.000000000000000000e+00 0.000000000000000000e+00 0.000000000000000000e+00 1.678699999999999903e+01
1.748499999999999943e+01 0.000000000000000000e+00 0.000000000000000000e+00 -8.743000000000000327e+00 1.514300000000000068e+01 0.000000000000000000e+00 0.000000000000000000e+00 0.000000000000000000e+00 1.677599999999999980e+01
1.751300000000000168e+01 0.000000000000000000e+00 0.000000000000000000e+00 -8.756999999999999673e+00 1.516699999999999982e+01 0.000000000000000000e+00 0.000000000000000000e+00 0.000000000000000000e+00 1.680199999999999960e+01
1.748100000000000165e+01 0.000000000000000000e+00 0.000000000000000000e+00 -8.740999999999999659e+00 1.513899999999999935e+01 0.000000000000000000e+00 0.000000000000000000e+00 0.000000000000000000e+00 1.677199999999999847e+01
1.751300000000000168e+01 0.000000000000000000e+00 0.000000000000000000e+00 -8.756000000000000227e+00 1.516699999999999982e+01 0.000000000000000000e+00 0.000000000000000000e+00 0.000000000000000000e+00 1.680199999999999960e+01
1.748900000000000077e+01 0.000000000000000000e+00 0.000000000000000000e+00 -8.743999999999999773e+00 1.514499999999999957e+01 0.000000000000000000e+00 0.000000000000000000e+00 0.000000000000000000e+00 1.677899999999999991e+01
1.752799999999999869e+01 0.000000000000000000e+00 0.000000000000000000e+00 -8.763999999999999346e+00 1.517999999999999972e+01 0.000000000000000000e+00 0.000000000000000000e+00 0.000000000000000000e+00 1.681700000000000017e+01
1.748799999999999955e+01 0.000000000000000000e+00 0.000000000000000000e+00 -8.743999999999999773e+00 1.514499999999999957e+01 0.000000000000000000e+00 0.000000000000000000e+00 0.000000000000000000e+00 1.677799999999999869e+01
1.752100000000000080e+01 0.000000000000000000e+00 0.000000000000000000e+00 -8.759999999999999787e+00 1.517300000000000004e+01 0.000000000000000000e+00 0.000000000000000000e+00 0.000000000000000000e+00 1.680999999999999872e+01
1.752700000000000102e+01 0.000000000000000000e+00 0.000000000000000000e+00 -8.762999999999999901e+00 1.517800000000000082e+01 0.000000000000000000e+00 0.000000000000000000e+00 0.000000000000000000e+00 1.681500000000000128e+01
1.753800000000000026e+01 0.000000000000000000e+00 0.000000000000000000e+00 -8.769000000000000128e+00 1.518800000000000061e+01 0.000000000000000000e+00 0.000000000000000000e+00 0.000000000000000000e+00 1.682600000000000051e+01
1.748999999999999844e+01 0.000000000000000000e+00 0.000000000000000000e+00 -8.744999999999999218e+00 1.514600000000000080e+01 0.000000000000000000e+00 0.000000000000000000e+00 0.000000000000000000e+00 1.678000000000000114e+01
1.747599999999999909e+01 0.000000000000000000e+00 0.000000000000000000e+00 -8.737999999999999545e+00 1.513499999999999979e+01 0.000000000000000000e+00 0.000000000000000000e+00 0.000000000000000000e+00 1.676699999999999946e+01
1.752700000000000102e+01 0.000000000000000000e+00 0.000000000000000000e+00 -8.763999999999999346e+00 1.517900000000000027e+01 0.000000000000000000e+00 0.000000000000000000e+00 0.000000000000000000e+00 1.681599999999999895e+01
1.755799999999999983e+01 0.000000000000000000e+00 0.000000000000000000e+00 -8.778999999999999915e+00 1.520599999999999952e+01 0.000000000000000000e+00 0.000000000000000000e+00 0.000000000000000000e+00 1.684499999999999886e+01
1.752499999999999858e+01 0.000000000000000000e+00 0.000000000000000000e+00 -8.762000000000000455e+00 1.517699999999999960e+01 0.000000000000000000e+00 0.000000000000000000e+00 0.000000000000000000e+00 1.681400000000000006e+01
1.751099999999999923e+01 0.000000000000000000e+00 0.000000000000000000e+00 -8.755000000000000782e+00 1.516499999999999915e+01 0.000000000000000000e+00 0.000000000000000000e+00 0.000000000000000000e+00 1.680000000000000071e+01
1.752799999999999869e+01 0.000000000000000000e+00 0.000000000000000000e+00 -8.763999999999999346e+00 1.517999999999999972e+01 0.000000000000000000e+00 0.000000000000000000e+00 0.000000000000000000e+00 1.681700000000000017e+01
1.751599999999999824e+01 0.000000000000000000e+00 0.000000000000000000e+00 -8.757999999999999119e+00 1.516900000000000048e+01 0.000000000000000000e+00 0.000000000000000000e+00 0.000000000000000000e+00 1.680499999999999972e+01
1.751000000000000156e+01 0.000000000000000000e+00 0.000000000000000000e+00 -8.755000000000000782e+00 1.516399999999999970e+01 0.000000000000000000e+00 0.000000000000000000e+00 0.000000000000000000e+00 1.679899999999999949e+01
1.748999999999999844e+01 0.000000000000000000e+00 0.000000000000000000e+00 -8.744999999999999218e+00 1.514600000000000080e+01 0.000000000000000000e+00 0.000000000000000000e+00 0.000000000000000000e+00 1.678000000000000114e+01
1.750199999999999889e+01 0.000000000000000000e+00 0.000000000000000000e+00 -8.750999999999999446e+00 1.515700000000000003e+01 0.000000000000000000e+00 0.000000000000000000e+00 0.000000000000000000e+00 1.679100000000000037e+01
1.749500000000000099e+01 0.000000000000000000e+00 0.000000000000000000e+00 -8.747999999999999332e+00 1.515099999999999980e+01 0.000000000000000000e+00 0.000000000000000000e+00 0.000000000000000000e+00 1.678500000000000014e+01
1.747599999999999909e+01 0.000000000000000000e+00 0.000000000000000000e+00 -8.737999999999999545e+00 1.513499999999999979e+01 0.000000000000000000e+00 0.000000000000000000e+00 0.000000000000000000e+00 1.676699999999999946e+01
1.750799999999999912e+01 0.000000000000000000e+00 0.000000000000000000e+00 -8.753999999999999559e+00 1.516300000000000026e+01 0.000000000000000000e+00 0.000000000000000000e+00 0.000000000000000000e+00 1.679799999999999827e+01
1.754299999999999926e+01 0.000000000000000000e+00 0.000000000000000000e+00 -8.772000000000000242e+00 1.519299999999999962e+01 0.000000000000000000e+00 0.000000000000000000e+00 0.000000000000000000e+00 1.683099999999999952e+01
1.751300000000000168e+01 0.000000000000000000e+00 0.000000000000000000e+00 -8.756000000000000227e+00 1.516699999999999982e+01 0.000000000000000000e+00 0.000000000000000000e+00 0.000000000000000000e+00 1.680199999999999960e+01
1.752199999999999847e+01 0.000000000000000000e+00 0.000000000000000000e+00 -8.760999999999999233e+00 1.517399999999999949e+01 0.000000000000000000e+00 0.000000000000000000e+00 0.000000000000000000e+00 1.681099999999999994e+01
1.751500000000000057e+01 0.000000000000000000e+00 0.000000000000000000e+00 -8.756999999999999673e+00 1.516799999999999926e+01 0.000000000000000000e+00 0.000000000000000000e+00 0.000000000000000000e+00 1.680399999999999849e+01
1.750600000000000023e+01 0.000000000000000000e+00 0.000000000000000000e+00 -8.753000000000000114e+00 1.516000000000000014e+01 0.000000000000000000e+00 0.000000000000000000e+00 0.000000000000000000e+00 1.679500000000000171e+01
1.749699999999999989e+01 0.000000000000000000e+00 0.000000000000000000e+00 -8.749000000000000554e+00 1.515300000000000047e+01 0.000000000000000000e+00 0.000000000000000000e+00 0.000000000000000000e+00 1.678699999999999903e+01
1.753099999999999881e+01 0.000000000000000000e+00 0.000000000000000000e+00 -8.765000000000000568e+00 1.518200000000000038e+01 0.000000000000000000e+00 0.000000000000000000e+00 0.000000000000000000e+00 1.681899999999999906e+01
1.750799999999999912e+01 0.000000000000000000e+00 0.000000000000000000e+00 -8.753999999999999559e+00 1.516300000000000026e+01 0.000000000000000000e+00 0.000000000000000000e+00 0.000000000000000000e+00 1.679799999999999827e+01
1.749099999999999966e+01 0.000000000000000000e+00 0.000000000000000000e+00 -8.746000000000000441e+00 1.514799999999999969e+01 0.000000000000000000e+00 0.000000000000000000e+00 0.000000000000000000e+00 1.678099999999999881e+01
1.751500000000000057e+01 0.000000000000000000e+00 0.000000000000000000e+00 -8.756999999999999673e+00 1.516799999999999926e+01 0.000000000000000000e+00 0.000000000000000000e+00 0.000000000000000000e+00 1.680399999999999849e+01
1.751500000000000057e+01 0.000000000000000000e+00 0.000000000000000000e+00 -8.757999999999999119e+00 1.516799999999999926e+01 0.000000000000000000e+00 0.000000000000000000e+00 0.000000000000000000e+00 1.680399999999999849e+01
1.748799999999999955e+01 0.000000000000000000e+00 0.000000000000000000e+00 -8.743999999999999773e+00 1.514499999999999957e+01 0.000000000000000000e+00 0.000000000000000000e+00 0.000000000000000000e+00 1.677799999999999869e+01
1.751699999999999946e+01 0.000000000000000000e+00 0.000000000000000000e+00 -8.757999999999999119e+00 1.516999999999999993e+01 0.000000000000000000e+00 0.000000000000000000e+00 0.000000000000000000e+00 1.680600000000000094e+01
1.753300000000000125e+01 0.000000000000000000e+00 0.000000000000000000e+00 -8.766999999999999460e+00 1.518399999999999928e+01 0.000000000000000000e+00 0.000000000000000000e+00 0.000000000000000000e+00 1.682199999999999918e+01
1.752400000000000091e+01 0.000000000000000000e+00 0.000000000000000000e+00 -8.762000000000000455e+00 1.517699999999999960e+01 0.000000000000000000e+00 0.000000000000000000e+00 0.000000000000000000e+00 1.681299999999999883e+01
