-7.026019999999999488e-01 2.315723999999999894e+00 7.102490000000000192e-01 -7.246050000000000546e-01 2.249483999999999817e+00 9.024888999999999939e+00 -2.900727999999999973e+00 6.230114000000000374e+00 6.063560000000000061e-01 -2.927957999999999839e+00 6.055883999999999823e+00 8.944919000000000509e+00 -5.140818000000000332e+00 9.982253999999999294e+00 7.260069999999999579e-01 -5.098498000000000197e+00 9.778413999999999717e+00 8.955838999999999217e+00 -7.266948000000000185e+00 1.370716400000000057e+01 7.213880000000000292e-01 -7.276118000000000308e+00 1.353436400000000006e+01 9.002198999999999174e+00 1.440601999999999938e+00 1.537093999999999960e+00 1.456949999999999912e-01 7.458399999999999752e-02 1.442004000000000064e+00 1.679076900000000094e+01 2.267942000000000125e+00 2.380473999999999979e+00 9.046790000000000109e-01 3.660871999999999904e+00 2.327653999999999890e+00 6.411210000000000520e-01 1.822011999999999965e+00 3.335944000000000020e+00 1.740618999999999916e+00 1.508212000000000108e+00 1.339874000000000009e+00 8.538468999999999198e+00 1.700429999999999997e-01 1.454674000000000023e+00 8.251858999999999611e+00 -3.000570000000000181e-01 6.146350000000000424e-01 7.281309000000000253e+00 2.359231999999999996e+00 2.131774000000000058e+00 9.290378999999999721e+00 3.737902000000000058e+00 2.193703999999999876e+00 9.049168999999999130e+00 1.974002000000000034e+00 3.175504000000000104e+00 1.009636899999999926e+01 1.707189199999999829e+01 6.641679999999999806e-01 1.577256900000000073e+01 -7.951139999999999874e-01 5.282814000000000121e+00 2.040879999999999916e-01 -2.110198000000000018e+00 5.383174000000000348e+00 1.671456900000000090e+01 6.131000000000000338e-02 6.169643999999999906e+00 8.672279999999999989e-01 1.399852000000000096e+00 6.157773999999999859e+00 5.847729999999999873e-01 -3.292709999999999804e-01 7.106463999999999892e+00 1.782858999999999972e+00 -7.836790000000000145e-01 5.219613999999999976e+00 8.428639000000000436e+00 -2.126857999999999915e+00 5.237534000000000134e+00 8.221778999999999726e+00 1.497389199999999931e+01 4.295404000000000444e+00 7.308258999999999617e+00 9.887500000000000455e-02 6.056784000000000390e+00 9.292889000000000621e+00 1.457562000000000024e+00 6.164774000000000420e+00 9.032698999999999145e+00 -4.361369999999999969e-01 6.985733999999999888e+00 1.010126900000000028e+01 1.487299199999999999e+01 4.361023999999999567e+00 1.590726899999999944e+01 -2.921978000000000186e+00 9.149533999999999168e+00 7.786300000000000165e-02 -4.285447999999999702e+00 9.195263999999999882e+00 1.670986900000000119e+01 -2.068097999999999992e+00 1.004411400000000043e+01 7.811609999999999943e-01 -7.080400000000000027e-01 1.005421399999999998e+01 6.581719999999999793e-01 -2.683857999999999855e+00 1.086556399999999911e+01 1.712698999999999971e+00 -2.846767999999999965e+00 9.009394000000000347e+00 8.446248999999999896e+00 -4.254678000000000182e+00 8.982713999999999643e+00 8.214838999999999558e+00 1.275949199999999983e+01 8.064453999999999567e+00 7.312478999999999729e+00 -2.060637999999999970e+00 9.846114000000000033e+00 9.148218999999999212e+00 -6.420000000000000151e-01 9.802673999999999666e+00 9.092278999999999556e+00 -2.616998000000000157e+00 1.073926400000000037e+01 1.001035899999999934e+01 -4.719197999999999560e+00 8.325544000000000722e+00 1.573916900000000041e+01 -5.042188000000000336e+00 1.306216399999999922e+01 2.666900000000000173e-02 -6.411658000000000079e+00 1.298356399999999944e+01 1.670926899999999904e+01 -4.143188000000000315e+00 1.382636399999999988e+01 7.699989999999999890e-01 -2.841828000000000021e+00 1.395696399999999926e+01 4.268710000000000004e-01 -4.603568000000000104e+00 1.464096400000000031e+01 1.745549000000000017e+00 -5.038418000000000063e+00 1.290666399999999925e+01 8.373848999999999876e+00 -6.380487999999999715e+00 1.279016400000000075e+01 8.228258999999999546e+00 1.059739199999999926e+01 1.191326399999999985e+01 7.352939000000000114e+00 -4.241787999999999670e+00 1.366226400000000041e+01 9.199009000000000214e+00 -2.890967999999999982e+00 1.362156399999999934e+01 9.071068999999999605e+00 -4.634368000000000265e+00 1.461346400000000045e+01 1.013186900000000001e+01 5.861991999999999869e+00 1.518234000000000083e+00 1.169010000000000049e-01 4.475521999999999778e+00 1.536264000000000074e+00 1.667366900000000030e+01 6.709742000000000317e+00 2.304314000000000195e+00 8.982679999999999554e-01 8.027001999999999526e+00 2.400313999999999837e+00 6.094039999999999457e-01 6.305512000000000228e+00 3.167733999999999828e+00 1.877069000000000099e+00 5.960352000000000317e+00 1.445994000000000002e+00 8.395438999999999652e+00 4.581602000000000174e+00 1.488304000000000071e+00 8.174578999999999596e+00 4.168762000000000079e+00 7.424260000000000304e-01 7.112859000000000265e+00 6.780701999999999785e+00 2.207564000000000082e+00 9.214059000000000665e+00 8.164671999999999485e+00 2.119304000000000077e+00 9.155198999999999643e+00 6.291261999999999688e+00 3.149783999999999917e+00 1.012796900000000022e+01 3.070161999999999836e+00 6.621320000000000539e-01 6.351549000000000333e+00 4.029011999999999816e+00 5.923789999999999889e-01 1.576826900000000009e+01 2.902562000000000086e+00 7.170539999999999692e-01 1.496066899999999933e+01 3.562431999999999821e+00 5.216243999999999659e+00 1.717909999999999993e-01 2.220781999999999812e+00 5.290744000000000113e+00 1.666946899999999943e+01 4.471102000000000132e+00 5.987053999999999654e+00 7.965449999999999475e-01 5.801852000000000231e+00 6.080843999999999916e+00 3.565320000000000156e-01 4.147251999999999938e+00 6.995993999999999602e+00 1.730968999999999980e+00 3.712912000000000212e+00 5.363044000000000366e+00 8.455889000000000877e+00 2.277001999999999970e+00 5.361023999999999567e+00 8.282049000000000660e+00 1.805762000000000089e+00 4.352003999999999984e+00 7.426498999999999739e+00 4.559741999999999962e+00 6.053104000000000262e+00 9.301698999999999273e+00 5.965472000000000108e+00 6.052494000000000263e+00 9.051659000000000788e+00 4.070342000000000127e+00 7.015293999999999919e+00 1.016596900000000048e+01 8.161500000000000421e-01 4.493623999999999619e+00 6.446278999999999648e+00 1.799001999999999990e+00 4.459494000000000291e+00 1.566676900000000039e+01 7.359210000000000473e-01 4.488663999999999987e+00 1.471256900000000023e+01 1.480982000000000021e+00 9.224883999999999418e+00 8.064599999999999547e-02 1.222059999999999952e-01 9.238573999999999842e+00 1.668086900000000128e+01 2.381981999999999822e+00 9.958983999999999170e+00 8.293549999999999534e-01 3.707552000000000181e+00 9.876974000000000586e+00 5.748299999999999521e-01 1.985522000000000009e+00 1.086516400000000004e+01 1.714439000000000046e+00 1.500502000000000002e+00 8.991073999999999344e+00 8.412449000000000510e+00 1.426510000000000000e-01 9.021314000000000277e+00 8.250099000000000515e+00 -3.820310000000000095e-01 8.240933999999999315e+00 7.307808999999999777e+00 2.280152000000000179e+00 9.738454000000000832e+00 9.242739000000000260e+00 3.705092000000000052e+00 9.847474000000000061e+00 9.027259000000000810e+00 1.900972000000000106e+00 1.072096400000000038e+01 1.014546900000000029e+01 -1.441397999999999957e+00 8.356424000000000518e+00 6.441608999999999696e+00 -3.608899999999999886e-01 8.218794000000000821e+00 1.586666899999999991e+01 -1.386478000000000099e+00 8.289604000000000639e+00 1.492976900000000029e+01 -7.349400000000000377e-01 1.292836400000000019e+01 2.166099999999999970e-02 -2.079597999999999836e+00 1.299976400000000076e+01 1.658976900000000043e+01 9.575000000000000178e-02 1.376386399999999988e+01 7.062530000000000197e-01 1.482822000000000084e+00 1.375656399999999913e+01 5.661450000000000093e-01 -3.355159999999999809e-01 1.469506400000000035e+01 1.648638999999999966e+00 -7.079509999999999970e-01 1.270756399999999964e+01 8.566898999999999376e+00 -2.071337999999999901e+00 1.284956400000000087e+01 8.241839000000000581e+00 -2.431557999999999886e+00 1.202736400000000039e+01 7.217418999999999585e+00 8.416300000000000170e-02 1.355176400000000037e+01 9.258879000000000303e+00 1.457302000000000097e+00 1.370746399999999987e+01 8.987109000000000236e+00 -3.482480000000000020e-01 1.447116399999999992e+01 1.018256900000000087e+01 -3.543957999999999942e+00 1.203506400000000021e+01 6.391348999999999947e+00 -2.524347999999999814e+00 1.202426400000000051e+01 1.570266900000000021e+01 -3.566818000000000044e+00 1.211686399999999963e+01 1.476026899999999920e+01 1.022939200000000071e+01 1.685334000000000110e+00 1.680506899999999959e+01 8.857442000000000704e+00 1.625513999999999903e+00 1.661136899999999983e+01 1.106819199999999981e+01 2.429333999999999882e+00 7.512199999999999989e-01 1.247509200000000007e+01 2.321213999999999889e+00 6.379559999999999675e-01 1.066719200000000001e+01 3.264434000000000058e+00 1.720078999999999914e+00 1.032859200000000044e+01 1.410093999999999959e+00 8.506408999999999665e+00 8.971232000000000539e+00 1.376244000000000023e+00 8.327049000000000589e+00 8.431101999999999208e+00 5.865289999999999671e-01 7.377138999999999669e+00 1.107389200000000073e+01 2.126104000000000216e+00 9.384518999999999167e+00 1.245789199999999930e+01 2.304504000000000108e+00 9.068998999999999810e+00 1.050479200000000013e+01 3.102554000000000034e+00 1.016156900000000007e+01 7.374272000000000382e+00 6.002690000000000525e-01 6.427759000000000000e+00 8.447081999999999979e+00 6.599629999999999663e-01 1.570066899999999954e+01 7.399151999999999951e+00 7.129240000000000022e-01 1.480106900000000003e+01 8.013261999999999219e+00 5.235704000000000136e+00 1.214650000000000035e-01 6.686842000000000397e+00 5.221434000000000353e+00 1.654776899999999884e+01 8.811711999999999989e+00 6.068734000000000073e+00 8.419590000000000130e-01 1.018169199999999996e+01 6.101983999999999853e+00 5.999419999999999753e-01 8.430021999999999238e+00 7.073114000000000345e+00 1.772329000000000043e+00 8.087431999999999732e+00 5.161763999999999797e+00 8.291178999999999633e+00 6.720002000000000031e+00 5.236673999999999829e+00 8.280449000000000837e+00 6.167472000000000065e+00 4.339123999999999981e+00 7.428228999999999971e+00 8.870862000000000691e+00 6.064983999999999931e+00 9.060928999999999789e+00 1.029789199999999916e+01 6.140054000000000123e+00 9.020618999999999943e+00 8.232951999999999160e+00 6.976473999999999620e+00 9.880508999999999986e+00 5.275862000000000052e+00 4.390293999999999919e+00 6.382329000000000363e+00 6.277671999999999919e+00 4.352263999999999911e+00 1.559716899999999917e+01 5.233202000000000353e+00 4.491273999999999766e+00 1.471616900000000072e+01 5.840431999999999846e+00 9.025214000000000070e+00 5.517000000000000202e-03 4.486402000000000001e+00 9.004004000000000119e+00 1.671306900000000084e+01 6.722832000000000363e+00 9.847483999999999682e+00 7.638319999999999554e-01 8.049561999999999884e+00 9.840134000000000825e+00 5.411080000000000334e-01 6.192071999999999576e+00 1.079786400000000057e+01 1.611169000000000073e+00 5.813901999999999681e+00 9.191803999999999419e+00 8.280068999999999235e+00 4.476571999999999996e+00 9.095164000000000470e+00 8.156278999999999613e+00 3.979352000000000000e+00 8.222263999999999129e+00 7.289838999999999736e+00 6.696121999999999908e+00 9.866733999999999227e+00 9.134679000000000215e+00 8.052631999999999124e+00 9.865453999999999724e+00 9.048678999999999917e+00 6.198622000000000298e+00 1.070826399999999978e+01 1.004319899999999954e+01 3.054762000000000199e+00 8.272434000000000509e+00 6.260578999999999894e+00 3.921012000000000164e+00 8.180384000000000100e+00 1.579726900000000001e+01 3.008922000000000097e+00 8.208093999999999113e+00 1.480876899999999985e+01 3.666491999999999862e+00 1.285696399999999961e+01 1.668899999999999897e-02 2.309321999999999875e+00 1.294696399999999947e+01 1.656486900000000162e+01 4.495242000000000182e+00 1.364036399999999993e+01 8.002000000000000224e-01 5.823771999999999949e+00 1.359036399999999922e+01 5.527130000000000098e-01 4.080872000000000277e+00 1.453736400000000017e+01 1.741338999999999970e+00 3.584281999999999968e+00 1.295416400000000046e+01 8.325248999999999455e+00 2.246631999999999962e+00 1.299836400000000047e+01 8.076888999999999541e+00 1.863822000000000090e+00 1.199946399999999969e+01 7.227509000000000405e+00 4.443171999999999677e+00 1.370936400000000077e+01 9.119609000000000520e+00 5.805632000000000126e+00 1.361906399999999984e+01 8.870369000000000170e+00 4.051631999999999678e+00 1.457946399999999976e+01 1.016206900000000068e+01 8.184280000000000443e-01 1.198896399999999929e+01 6.341929000000000372e+00 1.889072000000000084e+00 1.198126399999999947e+01 1.570876900000000020e+01 8.635979999999999768e-01 1.192046400000000084e+01 1.482526900000000047e+01 1.465389200000000081e+01 1.550243999999999955e+00 1.488589999999999913e-01 1.328079199999999993e+01 1.483673999999999937e+00 1.674186900000000122e+01 1.545749200000000023e+01 2.366343999999999781e+00 9.156039999999999734e-01 1.502829200000000043e+01 3.249693999999999861e+00 1.833318999999999921e+00 1.462789199999999923e+01 1.403224000000000027e+00 8.467529000000000750e+00 1.322869200000000056e+01 1.448213999999999890e+00 8.353519000000000361e+00 1.275449200000000083e+01 5.543510000000000382e-01 7.379158999999999580e+00 1.543189199999999950e+01 2.241073999999999788e+00 9.198999000000000592e+00 1.505039200000000044e+01 3.117993999999999932e+00 1.021736899999999970e+01 1.175089200000000034e+01 6.367270000000000429e-01 6.388179000000000052e+00 1.274569200000000002e+01 4.684019999999999850e-01 1.591556899999999963e+01 1.172679199999999966e+01 5.689680000000000293e-01 1.496566900000000011e+01 1.240689199999999914e+01 5.363693999999999740e+00 1.676936900000000108e+01 1.099999200000000066e+01 5.413683999999999941e+00 1.660516900000000007e+01 1.325329200000000007e+01 6.031293999999999933e+00 8.369379999999999598e-01 1.272399200000000086e+01 7.020883999999999681e+00 1.715159000000000100e+00 1.235879199999999933e+01 5.250353999999999743e+00 8.521008999999999389e+00 1.100639199999999995e+01 5.249914000000000414e+00 8.253138999999999115e+00 1.052439200000000064e+01 4.378453999999999624e+00 7.347618999999999900e+00 1.322789200000000065e+01 5.968163999999999803e+00 9.212889000000000550e+00 1.279929199999999945e+01 6.764663999999999788e+00 1.023576899999999945e+01 9.502261999999999986e+00 4.423703999999999859e+00 6.402839000000000169e+00 1.052789199999999958e+01 4.475323999999999636e+00 1.574186899999999945e+01 9.536692000000000391e+00 4.438684000000000296e+00 1.478846899999999920e+01 1.022769199999999934e+01 8.958133999999999375e+00 2.471700000000000008e-01 8.944241999999999138e+00 9.004594000000000875e+00 1.663876899999999992e+01 1.103849199999999975e+01 9.954644000000000048e+00 8.733060000000000267e-01 1.057709200000000038e+01 1.085606399999999994e+01 1.776089000000000029e+00 1.021739200000000025e+01 8.942534000000000205e+00 8.527039000000000257e+00 8.853251999999999455e+00 9.092223999999999862e+00 8.280969000000000690e+00 8.435871999999999815e+00 8.171113999999999322e+00 7.382609000000000421e+00 1.102439200000000064e+01 9.751134000000000412e+00 9.267169000000000878e+00 1.052119199999999921e+01 1.069716400000000078e+01 1.009776899999999955e+01 7.410111999999999810e+00 8.227004000000000872e+00 6.386288999999999660e+00 8.539272000000000418e+00 8.149444000000000798e+00 1.569096900000000083e+01 7.478801999999999950e+00 8.254934000000000438e+00 1.480256900000000009e+01 8.025691999999999382e+00 1.285136400000000023e+01 5.761600000000000055e-02 6.652881999999999962e+00 1.279076399999999936e+01 1.655196899999999971e+01 8.843031999999999115e+00 1.364656399999999969e+01 8.501480000000000148e-01 8.322281999999999513e+00 1.460506400000000049e+01 1.704819000000000084e+00 8.087642000000000664e+00 1.269326399999999921e+01 8.506249000000000393e+00 6.686391999999999669e+00 1.282696400000000025e+01 8.147679000000000116e+00 6.241232000000000113e+00 1.194576400000000049e+01 7.231789000000000023e+00 8.862161999999999651e+00 1.357986400000000060e+01 9.259928999999999633e+00 8.314301999999999637e+00 1.448056399999999933e+01 1.013066899999999926e+01 5.178842000000000390e+00 1.206246400000000030e+01 6.321119000000000376e+00 6.254521999999999693e+00 1.186256400000000077e+01 1.564496899999999968e+01 5.247601999999999656e+00 1.201556399999999947e+01 1.475986900000000013e+01 1.621589200000000019e+01 6.378970000000000473e-01 6.383658999999999750e+00 1.601219199999999887e+01 6.890199999999999658e-01 1.499336899999999950e+01 1.390939200000000042e+01 4.441694000000000031e+00 6.404339000000000226e+00 1.400789200000000001e+01 4.359393999999999991e+00 1.483096899999999962e+01 1.169639199999999946e+01 8.198283999999999239e+00 6.446138999999999619e+00 1.183319200000000038e+01 8.240603999999999374e+00 1.474006900000000009e+01 9.523441999999999297e+00 1.200706399999999974e+01 6.382709000000000188e+00 9.575882000000000005e+00 1.207876399999999961e+01 1.492866899999999930e+01 2.457132000000000094e+00 5.916219999999999812e-01 2.930468999999999991e+00 1.297431999999999919e+00 9.246140000000000470e-01 3.666459000000000135e+00 5.935500000000000220e-01 2.026174000000000142e+00 3.420028999999999986e+00 7.186789999999999567e-01 1.324000000000000003e-02 4.584869000000000305e+00 2.423681999999999892e+00 5.718940000000000135e-01 1.111366899999999980e+01 1.362532000000000076e+00 9.177079999999999682e-01 1.197716899999999995e+01 5.558429999999999760e-01 2.012383999999999951e+00 1.167416899999999913e+01 -7.982727999999999824e+00 1.515896399999999922e+01 1.281416899999999970e+01 1.905270000000000019e-01 4.295493999999999701e+00 2.980499000000000009e+00 8.027579999999999716e-01 3.154183999999999877e+00 2.688398999999999983e+00 -8.927890000000000548e-01 4.647744000000000320e+00 3.672858999999999874e+00 -1.638238000000000083e+00 5.793313999999999631e+00 3.346138999999999974e+00 -1.542688000000000059e+00 3.810373999999999928e+00 4.548489000000000004e+00 1.154540000000000011e-01 4.322934000000000054e+00 1.117666900000000041e+01 8.694490000000000274e-01 3.163813999999999904e+00 1.096866900000000022e+01 -9.733180000000000165e-01 4.598653999999999797e+00 1.196386900000000075e+01 -1.622727999999999948e+00 5.821223999999999954e+00 1.181566899999999976e+01 -1.498188000000000075e+00 3.757674000000000181e+00 1.293776899999999941e+01 -2.038467999999999947e+00 8.172273999999999816e+00 2.925999000000000017e+00 -1.411248000000000058e+00 6.981023999999999674e+00 2.663809000000000093e+00 -3.201977999999999991e+00 8.495414000000000243e+00 3.670208999999999833e+00 -3.835318000000000005e+00 9.662164000000000641e+00 3.404459000000000124e+00 -3.809628000000000014e+00 7.697414000000000200e+00 4.605908999999999587e+00 -2.020957999999999810e+00 8.146174000000000248e+00 1.130436899999999945e+01 -1.429837999999999942e+00 6.921864000000000239e+00 1.106386900000000040e+01 -3.085497999999999852e+00 8.442173999999999623e+00 1.208996899999999997e+01 -3.812267999999999990e+00 9.593863999999999947e+00 1.185506900000000030e+01 -3.636588000000000154e+00 7.554453999999999780e+00 1.298386900000000033e+01 -4.301237999999999673e+00 1.198166400000000031e+01 2.913518999999999970e+00 -3.619467999999999908e+00 1.076606400000000008e+01 2.664549000000000056e+00 -5.374258000000000202e+00 1.228096400000000088e+01 3.676279000000000075e+00 -5.899248000000000047e+00 1.353886400000000023e+01 3.524789000000000172e+00 -5.952168000000000347e+00 1.136486400000000074e+01 4.572328999999999866e+00 -4.269968000000000430e+00 1.178576400000000035e+01 1.117716899999999924e+01 -3.498648000000000202e+00 1.070146399999999964e+01 1.101876900000000070e+01 -5.226928000000000019e+00 1.228946400000000061e+01 1.202266900000000049e+01 -5.786687999999999832e+00 1.355456399999999917e+01 1.187676899999999947e+01 -5.921718000000000259e+00 1.142456400000000016e+01 1.293266900000000064e+01 -5.636067999999999856e+00 1.460376399999999997e+01 2.712508999999999837e+00 -5.698027999999999871e+00 1.459606400000000015e+01 1.093066899999999997e+01 6.715171999999999919e+00 5.375750000000000250e-01 2.908529000000000142e+00 5.629141999999999868e+00 8.052249999999999686e-01 3.663438999999999890e+00 4.935261999999999816e+00 2.026483999999999952e+00 3.479928999999999828e+00 -3.670898000000000216e+00 1.511746400000000001e+01 4.567679000000000045e+00 6.805451999999999835e+00 4.590139999999999776e-01 1.128456899999999941e+01 5.698121999999999687e+00 8.618080000000000185e-01 1.205946899999999999e+01 5.062692000000000192e+00 2.109404000000000057e+00 1.194616899999999937e+01 5.047162000000000148e+00 1.030709999999999960e-01 1.297126899999999949e+01 4.524802000000000213e+00 4.329994000000000121e+00 2.759989000000000026e+00 5.212862000000000329e+00 3.108924000000000021e+00 2.738799000000000206e+00 3.482571999999999779e+00 4.747124000000000343e+00 3.605418999999999929e+00 2.797401999999999944e+00 5.909203999999999901e+00 3.364999000000000073e+00 2.846292000000000044e+00 3.806754000000000193e+00 4.416128999999999749e+00 4.521501999999999910e+00 4.247224000000000110e+00 1.123496899999999954e+01 5.324582000000000370e+00 3.142793999999999865e+00 1.110656900000000036e+01 3.451411999999999924e+00 4.657593999999999568e+00 1.208436900000000058e+01 2.816861999999999977e+00 5.836263999999999896e+00 1.188796900000000001e+01 2.855291999999999941e+00 3.783383999999999858e+00 1.293136900000000011e+01 2.444852000000000025e+00 8.141113999999999962e+00 2.868389000000000078e+00 3.103241999999999834e+00 7.029543999999999571e+00 2.628579000000000221e+00 1.338972000000000051e+00 8.505494000000000554e+00 3.582869000000000081e+00 7.107419999999999849e-01 9.656993999999999190e+00 3.327909000000000006e+00 7.562010000000000121e-01 7.585274000000000072e+00 4.486228999999999800e+00 2.302302000000000071e+00 8.089494000000000185e+00 1.122886899999999955e+01 3.007362000000000091e+00 6.957233999999999696e+00 1.108016899999999971e+01 1.196131999999999973e+00 8.456533999999999551e+00 1.199136900000000061e+01 5.168709999999999694e-01 9.587224000000000856e+00 1.179376899999999928e+01 6.589300000000000157e-01 7.688174000000000063e+00 1.299546899999999994e+01 2.268640000000000101e-01 1.192546399999999984e+01 2.799509000000000025e+00 9.381230000000000402e-01 1.080246400000000051e+01 2.610869000000000106e+00 -9.289380000000000415e-01 1.216336399999999962e+01 3.517269000000000201e+00 -1.514988000000000001e+00 1.343186399999999914e+01 3.426248999999999878e+00 -1.503937999999999997e+00 1.126566399999999923e+01 4.355388999999999733e+00 2.260359999999999869e-01 1.191646399999999950e+01 1.122396900000000031e+01 8.423810000000000464e-01 1.069606399999999979e+01 1.100266899999999914e+01 -9.303280000000000438e-01 1.209196400000000082e+01 1.192806900000000070e+01 -1.663127999999999940e+00 1.327816400000000030e+01 1.183256899999999945e+01 -1.414188000000000001e+00 1.122386400000000073e+01 1.283966900000000066e+01 -1.290237999999999996e+00 1.458616400000000013e+01 2.658638999999999974e+00 -1.340147999999999895e+00 1.436796400000000062e+01 1.109906900000000007e+01 1.113439200000000007e+01 5.218990000000000018e-01 2.863348999999999922e+00 9.965821999999999292e+00 8.434460000000000290e-01 3.490038999999999891e+00 9.299172000000000438e+00 2.038593999999999795e+00 3.222229000000000010e+00 6.023519999999999985e-01 1.513746399999999959e+01 4.411589000000000205e+00 1.105849199999999932e+01 4.863870000000000138e-01 1.131716899999999981e+01 9.876082000000000249e+00 8.282519999999999882e-01 1.203626900000000077e+01 9.265432000000000556e+00 2.079164000000000012e+00 1.201496900000000068e+01 5.747539999999999871e-01 1.513596399999999953e+01 1.299906900000000043e+01 8.860402000000000555e+00 4.345953999999999873e+00 2.712718999999999880e+00 9.540292000000000883e+00 3.151794000000000207e+00 2.474258999999999986e+00 7.848662000000000027e+00 4.671153999999999584e+00 3.565828999999999915e+00 7.074942000000000064e+00 5.804753999999999969e+00 3.346398999999999901e+00 7.333181999999999867e+00 3.722534000000000010e+00 4.437299000000000326e+00 8.932641999999999527e+00 4.297883999999999816e+00 1.133106899999999939e+01 9.591272000000000020e+00 3.141643999999999881e+00 1.118586900000000028e+01 7.856002000000000152e+00 4.646404000000000423e+00 1.202126900000000020e+01 7.097491999999999912e+00 5.761444000000000010e+00 1.167596900000000026e+01 7.274472000000000271e+00 3.917613999999999930e+00 1.297926900000000039e+01 6.727891999999999761e+00 8.122284000000000503e+00 2.913368999999999875e+00 7.414272000000000418e+00 6.934773999999999994e+00 2.624089000000000116e+00 5.593682000000000265e+00 8.403594000000000008e+00 3.585369000000000028e+00 4.962562000000000140e+00 9.593863999999999947e+00 3.379179000000000155e+00 5.084291999999999589e+00 7.644423999999999886e+00 4.579729000000000383e+00 6.768241999999999869e+00 8.183583999999999747e+00 1.129006900000000080e+01 7.329672000000000409e+00 6.950943999999999789e+00 1.097076900000000066e+01 5.648532000000000330e+00 8.442783999999999622e+00 1.208696899999999985e+01 5.022091999999999778e+00 9.645773999999999404e+00 1.184586900000000043e+01 5.108062000000000324e+00 7.588484000000000229e+00 1.298116899999999951e+01 4.599821999999999633e+00 1.188936400000000049e+01 2.922058999999999962e+00 5.267141999999999769e+00 1.072216399999999936e+01 2.629208999999999907e+00 3.409111999999999920e+00 1.219646400000000064e+01 3.535499000000000169e+00 2.792101999999999862e+00 1.339186399999999999e+01 3.434689000000000103e+00 2.736222000000000154e+00 1.134736400000000067e+01 4.415929000000000215e+00 4.425352000000000174e+00 1.180846400000000074e+01 1.114106899999999989e+01 5.177561999999999998e+00 1.068276400000000059e+01 1.098456900000000047e+01 3.333671999999999969e+00 1.216906400000000055e+01 1.194896899999999995e+01 2.704451999999999856e+00 1.333016399999999990e+01 1.174056900000000070e+01 2.841542000000000012e+00 1.132306400000000046e+01 1.289126899999999942e+01 3.049182000000000059e+00 1.453316399999999931e+01 2.678268999999999789e+00 2.990031999999999801e+00 1.447636400000000023e+01 1.107776899999999998e+01 1.536549199999999971e+01 5.218899999999999650e-01 2.928989000000000065e+00 1.438449199999999983e+01 9.811499999999999666e-01 3.703809000000000129e+00 1.371169199999999933e+01 2.163133999999999890e+00 3.506378999999999913e+00 1.377179199999999959e+01 2.031650000000000122e-01 4.675929000000000002e+00 1.551409199999999977e+01 5.142799999999999594e-01 1.139516899999999922e+01 1.443719199999999958e+01 8.668400000000000549e-01 1.213316900000000054e+01 1.373559200000000047e+01 2.047973999999999961e+00 1.187376899999999935e+01 1.373349200000000003e+01 2.259600000000000150e-02 1.303686899999999937e+01 1.322459199999999946e+01 4.412834000000000145e+00 2.873038999999999898e+00 1.400749199999999917e+01 3.274004000000000136e+00 2.781788999999999845e+00 1.204859199999999930e+01 4.681913999999999909e+00 3.568198999999999899e+00 1.132309200000000082e+01 5.847763999999999740e+00 3.356269000000000169e+00 1.153199200000000069e+01 3.823643999999999821e+00 4.512799000000000227e+00 1.327479199999999970e+01 4.278243999999999936e+00 1.135736900000000027e+01 1.393429199999999923e+01 3.119514000000000120e+00 1.106226900000000057e+01 1.225339199999999984e+01 4.584033999999999942e+00 1.214916900000000055e+01 1.152969200000000072e+01 5.738063999999999609e+00 1.202836899999999964e+01 1.160069200000000045e+01 3.659384000000000192e+00 1.291726899999999922e+01 1.107279199999999975e+01 8.172124000000000166e+00 2.866209000000000007e+00 1.164589199999999991e+01 6.963213999999999793e+00 2.539668999999999954e+00 9.990422000000000580e+00 8.382224000000000785e+00 3.637068999999999885e+00 9.266391999999999740e+00 9.602304000000000173e+00 3.455629000000000062e+00 9.407961999999999492e+00 7.605833999999999762e+00 4.560919000000000167e+00 1.115209199999999967e+01 8.034183999999999770e+00 1.114516899999999922e+01 1.182699200000000062e+01 6.819533999999999985e+00 1.116196899999999914e+01 1.009969199999999923e+01 8.365563999999999112e+00 1.193276900000000040e+01 9.467522000000000659e+00 9.583864000000000161e+00 1.193446899999999999e+01 9.509451999999999572e+00 7.576173999999999964e+00 1.288516899999999943e+01 8.938342000000000453e+00 1.194806400000000046e+01 3.043318999999999885e+00 9.545711999999999975e+00 1.071796400000000027e+01 2.725009000000000015e+00 7.791502000000000372e+00 1.230726399999999998e+01 3.668858999999999870e+00 7.053761999999999865e+00 1.341756400000000049e+01 3.357279000000000124e+00 7.194922000000000040e+00 1.143566399999999916e+01 4.553149000000000335e+00 8.954421999999999215e+00 1.186996399999999952e+01 1.122996900000000053e+01 9.605522000000000560e+00 1.067526400000000031e+01 1.111986899999999956e+01 7.852482000000000184e+00 1.226416399999999918e+01 1.199536900000000017e+01 7.104411999999999949e+00 1.337286399999999986e+01 1.183736900000000070e+01 7.288952000000000098e+00 1.138166400000000067e+01 1.296236900000000070e+01 7.342092000000000063e+00 1.455046399999999984e+01 2.671028999999999876e+00 7.383852000000000082e+00 1.444016399999999933e+01 1.110066899999999990e+01 1.900090000000000112e-01 3.292584000000000177e+00 6.181319000000000230e+00 -9.208979999999999944e-01 2.967493999999999854e+00 5.434938999999999965e+00 2.566299999999999831e-02 3.271354000000000095e+00 1.472746899999999926e+01 -1.030628000000000100e+00 2.962293999999999983e+00 1.394566900000000054e+01 -2.104287999999999936e+00 7.136294000000000359e+00 6.286189000000000249e+00 -3.233908000000000005e+00 6.824474000000000373e+00 5.503428999999999682e+00 -1.955928000000000111e+00 7.078954000000000413e+00 1.471396900000000052e+01 -2.994187999999999850e+00 6.646504000000000190e+00 1.387586899999999979e+01 -4.273787999999999698e+00 1.086396399999999929e+01 6.260739000000000054e+00 -5.368068000000000062e+00 1.049746400000000079e+01 5.505258999999999681e+00 -4.338008000000000308e+00 1.095936400000000077e+01 1.470626900000000070e+01 -5.366958000000000339e+00 1.059406399999999948e+01 1.391066900000000039e+01 -6.282268000000000185e+00 1.457266399999999962e+01 6.232548999999999673e+00 -7.493888000000000105e+00 1.431616400000000056e+01 5.484719000000000122e+00 2.783532000000000117e+00 1.823703999999999992e+00 5.671308999999999934e+00 4.670691999999999844e+00 3.220234000000000041e+00 