-1.411662062147545803e+05
-1.411651059009427845e+05
-1.411659564988150669e+05
-1.411666940424769127e+05
-1.411656611912724329e+05
-1.411658660855346534e+05
-1.411649524892575282e+05
-1.411657436580504873e+05
-1.411658595978223893e+05
-1.411645149164671311e+05
-1.411658576618336665e+05
-1.411651725477429572e+05
-1.411658892480477225e+05
-1.411664109731750214e+05
-1.411652740873268922e+05
-1.411664666498799925e+05
-1.411657759131563944e+05
-1.411663331953878223e+05
-1.411643083867813984e+05
-1.411652393449340889e+05
-1.411651524229298811e+05
-1.411655714447026257e+05
-1.411651464759454248e+05
-1.411657328150300891e+05
-1.411656422193516628e+05
-1.411649431590876193e+05
-1.411671058183668356e+05
-1.411657764443329943e+05
-1.411659776776150393e+05
-1.411653455274946464e+05
-1.411656439230472024e+05
-1.411658973639158357e+05
-1.411662852280727238e+05
-1.411666484150498582e+05
-1.411654042481090291e+05
-1.411651154370899312e+05
-1.411662157825350005e+05
-1.411653956079705385e+05
-1.411643943846857583e+05
-1.411674428935101314e+05
-1.411646899381215917e+05
-1.411649224798517535e+05
-1.411651133001131529e+05
-1.411649149610940949e+05
-1.411648972032887104e+05
