2.830430002306157378e-01 -1.479608285150307845e-01 4.531487421043262631e-01 1.884821375953203093e+00 -6.971963316849449921e-01 -9.555382275826326266e-01 -1.395779516529726205e+00 -8.510146479062040414e-02 6.857245826516513709e-01 -1.024146064230221587e+00 2.530855321602577535e-01 6.342078985711689931e-01 1.995029665189139489e+00 -8.206540308268316375e-01 -1.370967340531049627e+00 -3.741104532898394952e-01 7.191890357238947540e-02 7.104416278254970241e-01 -9.193885141467755817e-01 -2.111333526303719732e-01 7.730279403716081021e-03 8.354286192541296452e-02 1.109324662122056493e+00 1.270348752658772895e+00 5.644039846340808131e-01 -3.780031037977973352e-01 1.452210607598921344e-01 -2.044968206018773216e-01 1.099579151893943063e+00 -7.068497964122756327e-01 1.039584511548639068e+00 -1.151692331957150817e+00 -1.664952442499952445e+00 -8.721480891976244321e-01 2.361003090521524850e-01 2.947420348021546621e-01 -4.980746597963680022e-01 -4.509473633956647132e-01 7.241975450960889127e-01 2.306644822992301169e-01 2.816324929197400739e-01 2.346028984472419213e-02 -1.348141598998983115e+00 7.048273664984316955e-01 9.669626683138481393e-01 6.355870384208841539e-01 -5.780704275072640064e-01 5.572563172548714583e-01 1.025921668220179050e+00 6.860727100484660390e-01 -7.138678801814445363e-01 3.306896595128298033e-01 -1.019518592378027000e+00 -8.038930079329232870e-01 -1.818237511881482416e+00 5.826572759261522405e-01 1.151944300087785145e+00 2.314400813429755122e+00 -2.734923796382376926e-01 2.283262180469465719e+00 1.303237278575281710e+00 4.118002576466125442e-01 -1.310589091562372188e-01 -2.772801291285438841e-01 -1.480618728776217585e+00 -3.838343662496127018e-01 -1.253824271275255642e-01 -3.574569025169565539e-01 -4.108618049151696039e-01 8.514126547084708285e-01 -4.344809889483956522e-01 -2.214645602070406394e-01 -6.050284463817278136e-01 -1.507077953596161202e-01 1.465945441821847883e-01 2.894204164610971741e+00 1.261699046688580461e+00 1.724754250092220831e+00 7.592283143436612258e-01 -2.517958667079514545e-01 -3.026625758555331336e-01 -1.203039323214961431e+00 5.789507733024585878e-01 -6.794438913300929750e-01 -1.522807964037169226e+00 -1.393742688436989008e+00 -2.594722043628848951e+00 -2.033434236283833685e-01 -3.900574648555976132e-01 2.486724903294394162e-01 -1.063716887815278622e-01 4.073537914719346231e-01 7.516548722457478959e-01 4.082516207700713218e-01 2.280008192039564285e-01 -2.561585149126429650e-01 1.274571532839928967e+00 1.092187229694221440e+00 5.117354462421287442e-01 -6.988932599116637334e-01 -6.442670834108878142e-02 -1.307853437572631394e-01 -1.888143755732848428e+00 -1.246944512867597998e+00 3.663950862856915069e-01 2.494844447748905958e-01 -5.848694532689838188e-02 -5.815609574475569810e-01 1.950208648514749399e+00 5.410917903436884835e-01 -1.242151976178804462e+00 -1.404094464840648371e+00 -7.580682325013953227e-01 -1.453060100153630074e+00 -1.269338309032863044e-01 3.655594776892012177e-01 4.755718488480529804e-01 8.071752784999369768e-01 1.474270674546265258e-01 2.988820254546736277e-01 1.336702760088874786e+00 -3.744328696529160005e-01 7.499553729156553938e-01 -1.102715383789324211e+00 2.604255180718285101e-01 -1.533030671051462679e-01 1.204132042148833293e+00 6.699986859760413971e-01 3.174181381178648592e-02 -3.855467210965743963e-01 -5.577165447587846270e-01 -6.838775019879017592e-02 5.394329144469021120e-01 -2.926301304909019185e-01 -1.172603115696398968e-01 -1.464325646696343630e-01 -9.303280447816891785e-03 1.890989967167663044e-01 -2.015298701526283320e+00 -1.845049492084313292e-01 -3.926851325036379015e-01 8.998157326032616421e-01 -1.111811947525886302e+00 -3.501482840665463142e-02 -9.545067009090576482e-01 6.714091932869170609e-01 1.725300866669494004e+00 7.967458547743886399e-01 -2.367780519014904897e-02 3.351813771068868908e-01 -2.393940981622810771e+00 5.516960490986564380e-01 1.751435618243662173e-01 -7.329624364974286488e-01 -6.206653828806037998e-01 -1.846547931130573472e+00 -1.095022642494866000e-01 4.725816556243046529e-01 3.199259923486852952e-01 1.439091809744361239e+00 -6.307734186844251578e-01 -9.904337567927422592e-01 8.816380317503804687e-01 -6.051960823217006347e-01 -2.375544222762480562e+00 -2.330262978584177469e-01 4.279179904763921183e-01 -1.941969804863692695e-01 6.924742432285939664e-01 -1.398495115913151454e-01 6.421664919544799455e-01 -1.644515256002161641e+00 -8.301372885108156130e-02 -2.164082283120934702e-01 1.767337892610715722e+00 -7.102719350028251499e-01 -6.339204492139763891e-01 -5.553680989371407861e-01 -1.611300199957178547e-01 -8.150397694997664477e-02 -3.812689193032187812e-02 3.816561274713154983e-01 1.164067052495328797e-01 -2.171384216702573200e-01 5.880540219077925457e-01 8.396231172981735158e-01 1.154751430751317809e+00 -9.240977470862573595e-01 1.738826413077792177e+00 -1.182779542849963783e-01 1.465863166513886040e-01 7.500679872434284912e-01 -8.090002476746719351e-01 4.801365857779263946e-01 1.678699103798398928e-01 2.831448159242188067e-01 -3.811835586712081225e-01 -3.199866703883073038e-01 -3.351577229558477811e-01 -2.678297815677446736e-01 -4.383947225040188966e-01 -2.454395849472028601e-01 5.033623909949586084e-01 6.084464712068791969e-02 7.245112197076944982e-01 -2.121327405117743314e+00 1.056710631121629218e+00 -7.812246179273343860e-02 -5.204900532299732152e-01 -6.151123138138353541e-01 -4.960038931390962635e-01 5.471338832721567291e-01 7.634994312682449880e-02 8.013836110400784918e-01 1.570914336602621697e+00 3.572578991158231743e-01 -3.241364312336468267e-01 -2.978926648764291252e-01 9.133844735482398169e-01 1.881224916553908555e-01 -1.814895591716196022e-01 -7.150809267532111102e-01 -1.557404731035241241e+00 -2.032431505968045060e-01 -5.855739355934094087e-02 1.751426876492190976e+00 -1.061417292957737457e+00 -3.113251373425949819e-01 9.596797608971759097e-02 1.392374861442118972e+00 -3.650905084338171291e-01 2.134483741081561470e-01 3.421423823811571285e-01 -9.731847384784835242e-01 -1.814364915979840287e+00 4.775382287083477229e-01 1.056758453644382367e+00 -1.060353884602327074e-01 -2.869659897583846098e-01 5.680426101287057161e-01 -1.266859765380504155e-01 1.480518455744638529e-01 6.169126003961815652e-01 -9.482239527048003103e-01 -1.128678385658121175e-01 -9.008796551793468721e-01 8.656658233715587292e-01 4.320430687293429911e-02 2.106096702951930855e+00 -1.598377834400377950e-01 -2.296694652935631908e-01 -3.027674768731848376e-01 -4.769499602564185314e-02 -6.004400553008153452e-01 4.281463044559870035e-01 -2.791740038736970075e-01 -1.041972038141564916e+00 -1.401473996282054824e+00 3.251093367502989051e-01 7.321139723840692781e-01 1.178675033424003482e+00 -6.204591803900236791e-01 1.499815615006479641e+00 1.324595434301573560e+00 3.196796806454736406e-01 2.365672214248375552e-02 3.703103625033389301e-01 -3.999258738249793499e-01 9.905911083192198152e-01 8.788648396513821792e-01 -4.963000842477599539e-02 -6.004261713425965707e-01 -8.959498215703913804e-01 2.684389273790692254e+00 1.326909427338008207e+00 -3.973383153895707065e-01 -1.903506612612075433e+00 -6.095839273394555446e-01 1.481156089381344965e-01 -6.519217723754138216e-01 -5.415443045374800368e-01 -3.371364441123367861e-01 -1.560248371366682041e-02 -1.982497078903809440e+00 3.034909853625767373e-01 -3.232956804304088633e-02 7.038009820316041276e-01 -1.278923382410450393e-01 4.664290052507621964e-01 1.035978281956524194e+00 5.614898960701973918e-01 6.865036269739177577e-01 -8.048787689664443912e-02 -3.192847591672554747e-02 -1.890794563311253007e-01 -7.669087143419252295e-02 -7.210597705386835310e-01 8.071140862396403159e-01 3.585917875461590021e-01 9.697404883989191315e-01 2.204721143047475018e-02 -5.987014751994407247e-01 -9.339743835864354748e-01 -5.466170914940197134e-01 -2.518699144851174188e-01 3.921009778171067883e-01 -9.300344247763994154e-01 -2.137203968451059297e-02 -7.108041534012050633e-01 6.248773644275896766e-01 -5.720756428808738969e-02 7.633991582366660422e-01 -7.001448730340373849e-01 -5.282954088522047176e-01 2.392915625597332729e-01 1.658106108436154802e+00 8.481010735629954667e-01 4.844061600404857976e-02 -7.545226809489026243e-01 -5.876524155608024991e-01 -7.172915614340183987e-01 3.782967238030870982e-01 -2.279961912178835315e-01 -2.491435164675225855e-01 -1.067933497348337452e-01 -4.969361752224420448e-01 -1.777182647429058349e-01 -7.049240399852871874e-01 8.107465410861679489e-01 4.652154444583210015e-03 6.647850025546166997e-01 -1.271072775368839780e+00 1.057918535486648048e+00 -4.527949582800890882e-01 -7.381694350500815904e-01 -7.390055578672465320e-01 1.433544397105014911e-01 1.439005420671000679e-01 -1.392458165191430390e-02 1.917328864349711948e+00 -7.156162304756397141e-01 -5.610610360274449065e-02 -1.157914916342461131e+00 5.122774348333292149e-01 5.751455403092105984e-02 -1.209940678890959187e-01 9.401008087055650053e-01 -3.886942658468001827e-02 4.048973593085905889e-03 -9.918797453301765321e-01 -3.449592832375102391e-01 -7.581330243064154928e-01 4.514991221796856857e-01 1.581526822888385808e-01 -3.711439142171302219e-01 -1.132222394548589639e+00 -1.214687964160373612e+00 8.543349708031504619e-01 1.457147126076648647e+00 -1.040404693524886515e+00 -1.011955948914283754e+00 -2.395337604975468215e-01 1.351404843401031064e+00 6.572645251862040405e-01 -4.397460944372966890e-02 8.749598478472300211e-01 1.763362452574120942e+00 -1.653806195153784353e+00 2.523184177576458964e+00 -1.152486802899660018e-01 4.448672181372639867e-01 5.993344808500742360e-01 6.966743977000602328e-01 -7.389531073584206800e-01 9.301552666349686138e-01 2.468773459538409210e-02 5.701781685909974168e-02 -3.581521288692364746e-01 -4.906822233759713381e-01 1.058235295422302435e+00 8.348398365815257183e-01 7.215652494619757551e-01 7.031170685341691096e-01 4.933340593957254439e-01 -6.599312736055262807e-01 1.030788252686138717e+00 1.113889399051929852e+00 9.450198436803503022e-01 -1.293967422471324458e+00 -1.929406365337876572e+00 1.747722944971871195e+00 1.200868283526110858e+00 1.202447455218308869e+00 -3.469997108749708903e-01 -8.344670265923223584e-02 -4.963355654743185630e-01 -5.486446636146111722e-01 -9.585597882675418457e-01 -1.287591086104259874e+00 -2.674513151511189249e-02 1.772894047001532802e-01 4.230128394598254848e-01 -2.791324034211085880e+00 -5.604578551759474836e-01 -1.536424527504900162e-01 3.713984534511380331e-01 9.764896347551869915e-02 1.312889200640588117e+00 1.633967047300742825e-01 7.882632705234939863e-01 3.870040224888534608e-01 2.301008964396895895e-01 -3.744560095832804025e-01 -1.389491111898046583e-01 -6.007182486858622106e-01 -2.256172521102262518e+00 5.314516953539016875e-01 1.803163132800797097e+00 1.835850084212798661e-01 6.292873209343593510e-01 -7.532458710134655455e-02 4.266689484573922275e-01 -9.228255651368931778e-01 -1.814933644046128558e+00 -6.458987056119117609e-01 -6.764480416789222517e-01 9.358086087333158387e-01 -1.289176942665229697e-01 -1.954403660779468477e-01 2.795241881532107286e-01 -4.323824543746868088e-02 6.991817377102058639e-01 2.629282300959012719e+00 -4.093443397039432385e-01 4.203548327919741368e-02 -2.660747464047776845e-01 1.542511871852747740e+00 1.527328477989013056e+00 -8.436690055672109168e-01 -8.784868874554312423e-01 -2.180078659871470315e+00 -1.415723051179744507e+00 -4.291444067857025368e-01 -7.332591418267671024e-01 3.353053042895048352e-01 1.071486762210951404e-01 -1.959165344227776218e-01 -8.531553485752433330e-01 1.317828290221689125e+00 1.653996456803446424e+00 -5.971187039625193149e-01 -1.102051010677530085e+00 6.827014793047181396e-01 6.712914367523962200e-01 -1.186851142152739458e+00 1.475479093131958630e-01 2.622479161431895411e-01 -1.207554694960057684e-01 1.482626760511168151e-01 -4.161505645551097365e-01 3.720545990321358909e-01 2.083570752073251459e-02 3.834240181511516243e-01 4.452225446235253403e-01 1.554611484329927240e+00 -5.023128665977667495e-01 -2.626099274982228171e-01 -4.068015184672388873e-01 1.471352986437658439e+00 -4.766943925810612215e-01 -5.287844327139045175e-01 -6.644841834598801400e-01 3.991355166478682270e-01 7.607360093620670893e-01 1.578509890189549791e+00 7.926506013205740775e-01 4.570408783916093398e-01 7.867370635607964791e-02 -3.486477881375871224e-01 1.550963602863156821e+00 -9.824355684174744807e-01 -6.371965491328930309e-01 -2.088347862141801958e-01 -1.311936349730251639e-01 -3.712827537993163007e-01 1.261722700839619515e-01 5.125402015981331827e-01 4.876498640568924237e-01 4.437271909013138504e-01 -3.007568740348604552e-01 -5.696094405247092984e-01 -4.212032969053335352e-01 2.033254259047666268e-01 1.087463598575846013e-01 -2.257845280957267720e-01 -7.268174994340077522e-01 -8.059673741349182574e-01 -5.474830391103210347e-01 -9.851475682561759983e-01 8.041172081471199551e-01 -7.288635834988907991e-01 -6.575051804619932438e-01 -6.608578992614495551e-01 -6.802553315548693913e-01 -1.315371343837670182e-01 -3.581212756287506238e-01 -2.214100528155157066e-01 -5.370932103767293159e-02 -5.813331576886368035e-01 -4.676430802638782414e-01 -6.666120286120506000e-01 1.065829306347206185e+00 1.031836748641980828e+00 -6.511051899438897728e-01 3.913373601150834102e-01 1.902210262290997267e-01 6.335805493479578221e-01 -7.804707704181315098e-01 -1.707874956443116599e+00 -4.679217878695999255e-01 7.070020057320055562e-01 1.479721413698755622e-02 2.273333607681136959e-01 1.896373857632434323e-01 9.584476881604432341e-01 -1.118566236088901711e+00 3.930754259957832120e-01 -7.212011812242433706e-01 1.497834836967291583e+00 -1.480734428428039373e-01 1.237906570287959029e+00 -4.711135555978555184e-02 6.108849056466065797e-01 -3.543654078202798097e-01 8.382043824565016399e-01 1.298195859079902759e+00 -1.545618793169667715e-01 -8.010066872854769426e-02 9.740316599298186329e-02 5.915707771024986128e-01 1.697773091287392511e+00 -9.386954436014368630e-01 -3.210439080956205560e-01 -9.424965628292869546e-01 2.067786234240717835e+00 -4.358884109352226810e-01 4.142397205276894812e-01 -9.350275075283506210e-01 -6.136277587257937816e-01 2.583393247943139778e-02 -1.752411609084362665e+00 -1.848297824086792884e+00 7.054197487157589652e-01 6.866774335619877379e-01 5.591327084970826311e-01 -9.857301802806826829e-02 -3.476666550901388320e-01 -6.532865140462353892e-01 7.547628220040170088e-01 9.265726911938929611e-01 9.635646980950125506e-01 9.498864281463097470e-01 5.553017644700963817e-01 1.176536903858337903e-02 8.006786144949780137e-01 -6.073460389628857967e-03 8.133351279629261743e-01 -6.238885180700198818e-02 -7.727235217321483107e-01 -5.441452327104325803e-01 7.103264423943499439e-01 5.435111986184495425e-01 5.185123605148337367e-01 1.636022387337771722e+00 1.226907390054772895e+00 -3.418230513421292166e-02 -6.581659540290639709e-01 1.315460304014404391e+00 1.592798025858521704e+00 -1.176848521587244401e+00 -1.562619442898015576e+00 -7.395521744445198581e-03 -1.493224848618039058e+00 2.163460076104471164e-01 9.639714466487502298e-01 -1.009250633944354242e-01 2.831643563098598659e-01 -2.260832903077642231e-01 1.028299424620284563e+00 -9.323592164470039245e-01 2.450467203516837056e-01 -1.529715490361263974e+00 -1.872550013770652444e-01 -2.187064347738129300e+00 1.187629158033655985e+00 7.427917646955282775e-03 -9.669349003974109236e-01 9.072544488843868882e-01 2.279771650529173188e-01 2.370480177557412194e-01 1.218940054919991134e+00 1.847111516990114222e-01 1.799219060225363043e+00 -8.572454598223104849e-01 -6.990053600187621230e-01 -1.240033901219454560e+00 -2.975800187061730662e-01 1.138741684263238213e-01 -5.553583287443203398e-01 4.654859245332463313e-01 -1.704939784831567828e-01 -2.974272951657683794e-01 5.330807464515516791e-01 1.443440573990833808e+00 1.813190435958680791e+00 3.035809739806603069e-01 1.478142756227232568e-01 -3.469112649189116104e-01 1.185144957953874756e-01 2.213951404159475722e-01 2.747270234783443232e-01 -1.774196053750033197e+00 1.156599539856416614e+00 -5.072488708548192893e-01 7.643530375883519357e-01 -5.796963932808653353e-02 1.549157659853388047e+00 -5.100714281385948512e-01 -3.563328161219240786e-01 -1.037379019074579301e+00 4.831607175662092080e-01 -1.535359576487465683e+00 -1.156404650220681285e+00 1.189298318343937622e+00 4.852145149412136482e-01 -7.399136715788785512e-01 5.994054433031915652e-01 2.467945564252039814e-01 3.065644823356367676e-01 6.174206504228476611e-01 7.856520579370460111e-02 5.324076315882865229e-01 -1.780213464086113140e+00 -1.685241019222736947e+00 -5.353227485935193597e-01 -2.890835504970596936e-01 1.347452543294800575e+00 -1.159584076652742546e+00 -1.542946388322922635e+00 -6.629086113124056379e-01 -2.049992142011210383e+00 5.836594920212658799e-01 -1.458849196510114965e-01 -2.610394975574958365e-01 8.321067536951590182e-02 -6.304926541960045316e-01 1.197293421395156710e+00 9.029869315045266354e-02 2.970909948444731552e-01 4.143137683048553344e-01 1.802929676614454801e-01 -1.224691613167218085e+00 2.271116288131557415e+00 2.381113746890841210e+00 3.713269767773459407e-01 2.135702444080750606e+00 1.249877627596447827e+00 9.944410785111723605e-01 -5.103779036607536401e-01 -1.345756129288756542e+00 1.476148094229825958e+00 2.824326202896717541e-01 1.168987630132138467e+00 -2.525484800875350100e+00 4.149179775977022144e-01 -8.572377465121890916e-01 5.148295120421791937e-01 -2.321809190691069558e-02 3.428365802920875782e-01 9.113471312348276898e-01 -7.481550863333091828e-01 -1.865468680858487494e+00 2.391738060252125209e+00 9.837458026967713653e-01 -1.164423921643614301e+00 -7.579977842689528122e-01 -1.198419050452213641e+00 7.822047225334330944e-01 1.538856791296530635e-01 7.077126587045283745e-01 1.073489651739154338e+00 -3.633287884020781622e-01 1.063415554499867355e+00 1.707001809737368758e-01 1.467328695436961095e+00 -3.908282816470677878e-01 1.637803647755151415e+00 5.291844963988704548e-02 -8.196312459047274679e-01 -2.168403279450970444e+00 1.162384522447503565e+00 -1.845178047253004036e-02 7.285838474518195607e-02 3.829591626611655863e-01 2.920891703410509743e-01 2.529749747151836536e-01 2.605088218211401574e-01 -5.978329564797655801e-03 8.154367478606835418e-01 -3.515623909221452514e-01 -4.507663577181480474e-01 2.024018855728918209e-01 -4.525234497638141451e-01 -3.921986797453118623e-01 -2.157351134488283972e-01 2.944479005761900525e-02 6.525419225091783071e-01 -6.168663205354528722e-01 -9.121529150321816548e-01 7.123288177018781697e-01 9.626828096377933186e-02 5.241379346967437458e-01 -6.898789714830638742e-01 -1.309841414701266249e+00 5.256929380172278843e-02 6.720509406890216031e-01 9.829446468854901031e-01 -4.027566586395511239e-01 2.142793547185735947e-01 1.224783144447325833e+00 -6.140885004503816580e-01 -6.456981595487539805e-01 -9.251534421315463774e-01 3.612914460886661183e-02 7.070698828610743059e-01 2.507787382132697918e-01 -2.816047250033028582e-01 -9.541364620232280214e-02 5.823754829963819768e-01 -4.695919766212310331e-01 -3.980983335468707418e-01 8.672398528570091081e-01 8.478743022454248157e-01 -6.275816509561696899e-01 -1.031649058095692295e+00 3.083328872361476014e-01 5.160153049181832874e-02 7.695055287494797502e-01 7.604027943648205001e-01 -3.866039588038875929e-01 5.678826874988541773e-01 -1.000553105451408520e+00 1.006716040238446075e+00 1.176963707018391370e+00 -1.279878804424160466e+00 -7.632865439088929449e-01 -9.968373468555692396e-01 1.381488295536706046e+00 2.163758324095834129e-01 7.238170217967641873e-02 -5.126888113731398189e-01 7.823641309426098145e-01 -8.832079474704325195e-01 -2.963577161622607536e-01 2.801201699152613411e-01 3.536275011519944833e-01 3.349067832665633127e-01 -2.514117438639033031e-01 -5.639175318757547739e-01 2.241837077131212830e+00 2.264555860762927919e-01 -1.392392859165735519e+00 -2.180185617771821072e+00 9.798022443420119076e-01 -1.302361560766159831e+00 -6.032158185031872843e-01 5.492699559551232902e-01 -6.443241619057865632e-01 -5.070364977161420095e-01 -1.902734767379255787e-01 1.153372290901602648e+00 4.472686286884083318e-01 -6.480723164041360396e-02 9.098605192640871753e-01 -7.590802187893295194e-01 -7.335666457902755289e-01 7.953811131035669613e-01 -2.234085200459156262e+00 2.225201009861272006e+00 7.032229979931703401e-01 1.012320531372691013e-01 -5.699051174126981145e-01 -4.378033687280410424e-01 1.149712582359312396e+00 -7.085292411360524789e-02 -2.889673366245632535e-01 -1.338339524496646060e+00 9.796299804159662727e-01 -1.673526043810280584e-01 1.009195098111479671e+00 -5.600331088985930350e-01 -1.258849235709042391e+00 4.822104377592466296e-02 9.404155117585200063e-01 4.997926710707519815e-01 7.533322600868257446e-01 -8.718539549716598502e-01 6.657831048843322330e-01 -1.335146214106366358e+00 -4.051030475784958562e-02 8.214135347634570206e-01 -1.429596724984857348e+00 1.100824594368219778e+00 -3.444250079564312433e-03 -1.054558617597744913e-01 1.045132952629334477e+00 5.331645644215380342e-01 1.612532786914586014e+00 -1.416334459562037962e+00 -3.933592758082525842e-01 -1.000292909789978202e+00 -1.074868277368194569e+00 1.146701820308573538e-01 -6.158666755437129936e-01 6.621779037335669971e-01 1.145858498401961523e+00 -5.057278060988694701e-01 1.355962381241457626e+00 -6.288204085616743155e-01 1.622137400677813979e+00 5.474850959930200878e-01 -5.891266862353488065e-01 2.920768290448567117e-01 -7.111347972950778917e-01 1.515903523037122724e+00 -9.156295610142561880e-01 -1.757954907958310553e+00 -6.402186240384766247e-01 1.219745324496670280e+00 -3.242397895892742410e-01 -6.393650177183697325e-01 -1.133522858635065855e+00 6.688442605611978342e-01 -5.010298860142324839e-01 2.266925389632237220e+00 -5.460360221315371243e-01 8.626596893068927407e-01 -2.335230350302390345e+00 -1.495739387717631153e-01 1.022178141707902471e-01 -1.827228660379717873e+00 1.083595116439601824e+00 -1.317672995577910511e+00 7.271897952025363487e-01 3.188677262000225165e-01 -1.239475457566661776e+00 1.703392494821205583e+00 -1.643156170758762302e+00 -9.924479591757899843e-01 1.045696538488875005e+00 9.798834912086244742e-02 1.595159841417709501e+00 -1.379130593742916577e+00 -3.485696265950231076e-01 8.408433629593866643e-01 -1.474352435633552449e+00 8.730793428396207423e-01 -4.681645000280882374e-01 2.101942314120518240e+00 -9.645566297766307029e-01 -9.177913447309607453e-02 -2.004375625952961870e-01 -1.613372509276474465e-01 -9.042935662391000662e-01 9.448614637125231086e-01 6.367183239053632315e-02 7.272581865522798061e-01 -1.048149371107495842e+00 -2.142140486928786614e-01 6.313976825835877493e-01 1.719368302744750610e+00 -2.967469812130565932e-01 -1.500567919853658116e-01 -4.280887117404135606e-03 -5.935587542311333564e-01 -3.438022867192929155e-01 5.150593686837984242e-01 -1.484153995915215019e-01 -2.141739394802471552e-01 -3.799052060737466152e-01 -3.533966160690258929e-01 3.697555183952693642e-02 -3.940395897609643705e-01 3.592875281191137415e-01 1.643253872686967487e-01 1.272944024404303098e+00 5.320116816687187056e-01 -2.590078116715061746e-02 -6.005105035332578556e-01 6.399990518103529195e-03 -8.744991061226420337e-02 -3.118671259337954527e-01 5.454395261488117486e-01 1.636666705843249914e-01 -1.126421471116585193e+00 -3.099722227472928582e-02 -7.096754390200997742e-01 1.878568452548081913e+00 -1.177462501072911727e-01 -1.286137898477378860e-01 7.004647182937402405e-01 -3.091643820672397847e-01 -3.997366406166665276e-01 1.407056890147959372e-01 7.286409259467182542e-01 -2.757446661937007493e-01 -1.159828845693930077e+00 5.727220182690512251e-01 1.169889573195673105e+00 2.512081124766971096e-01 7.986402437402164711e-01 -1.343132061185439596e+00 7.813536873166999630e-01 1.104643711319686500e-01 1.070817761113084687e+00 -7.932774363231104298e-01 1.465756722834209880e+00 6.626355601341062940e-01 -7.750308298998109802e-01 -6.016803555683443161e-01 6.898008099404997484e-01 -3.793765872200899891e-01 1.520637952789668235e-01 6.269008227827831403e-01 1.606014011420612078e-02 -3.686787403023151222e-01 -1.379741487904534991e-01 6.688524880919941573e-01 1.130263213777741527e+00 -8.750606350994835081e-01 -9.363259147321278952e-01 -7.665281910426005596e-02 4.365656395638859433e-01 7.411462585362858617e-03 2.727904684171858496e-01 -1.571988029371527151e-01 -4.850705331522798258e-01 1.384951571781236401e+00 1.101241113114778125e+00 1.016834360455763031e+00 -1.015435165999732048e+00 3.091448416815987255e-01 -1.103139101625329133e+00 -7.656334470685123295e-01 -1.438585816600393974e+00 1.560293622786061096e+00 -2.977455977634468343e-01 1.237934852425071064e-01 1.442614221366489424e+00 1.033372725797498670e-01 -3.059124505200369049e-01 -2.309686952504200530e+00 1.896301866737967190e+00 9.795908996446841543e-01 -7.229366760015694116e-01 -1.181049704500060304e+00 -1.793529208459107682e+00 8.059432057632042179e-01 1.626728362862100763e+00 5.267764009789540625e-01 6.860994495235538393e-01 2.602748514141228764e-01 -4.239692899148850280e-01 1.006140627303386159e+00 -3.439915199276058488e-01 -7.645175882042761772e-01 -8.997355141779985743e-01 1.920274834595430691e-01 -7.750488276234276941e-02 -1.178320221158416725e+00 7.725188619035923410e-02 8.545380879696817811e-01 -8.021960797062044346e-01 -8.744250583454761250e-01 9.022639372358095544e-01 9.405121852453753872e-01 -1.244353354887465901e+00 -7.846524129453062990e-01 -7.582430675308148293e-01 9.903293699957653740e-01 -5.069351962432137038e-01 4.037280214941789680e-01 -5.063186456541726166e-01 -4.188378818014225624e-01 4.084619370260494930e-01 -3.288353797596335060e-01 -2.656242890936850731e-01 -4.754962584088627819e-01 -9.290784885420144690e-02 5.402813785602614827e-01 -4.020218372953143771e-01 7.136297960090292047e-01 -5.774564480215966800e-01 1.595062653710178857e+00 -6.597883202579420958e-01 3.300643671723176853e-01 9.716677874879317001e-01 -1.229886270423676597e+00 -5.437395125980444277e-01 1.056805761946460587e+00 2.772405341365870579e-01 6.028147263768720565e-01 6.892768190729160749e-02 -7.147086309846825136e-01 1.942378096079454552e+00 -1.249139206707487570e+00 -9.411503331027566421e-01 -1.051396160447951145e+00 9.541688579257381342e-01 5.454770642580695217e-01 -1.293814698930919604e+00 4.410295892415057040e-01 -8.119477605824149125e-01 9.693234554316862983e-01 -1.304669897375172249e+00 -5.269275818573344594e-01 6.363285446338925455e-01 5.045492123123122008e-01 -1.101487939038664488e+00 1.835035044443299013e+00 1.551141523216624796e-01 -1.397950041997902071e+00 -1.517079031499631636e+00 -5.191474230481663010e-01 1.322541122705894523e+00 -1.472064667851530895e-01 3.251787565413919445e-01 2.573396798025741616e-01 1.214232878863207965e+00 -1.282165543764832716e+00 3.472218542064685609e-01 7.949203713789790848e-01 -1.032081517683168359e+00 -5.711772993620624073e-01 -1.518766189533530042e+00 1.783934364888700025e-02 3.503277470820386763e-01 -2.894357916592725233e-01 -9.985121635932731055e-01 5.387906528241229731e-01 1.014415466401676458e+00 3.756891107613626324e-01 -6.570290121171624698e-01 1.742061375342727758e-01 2.174279279101490325e-01 -3.181267342076886107e-01 -2.311591625883523404e-01 -1.193958700319317223e-01 -1.165854483560805788e+00 2.883754686279107471e-01 -3.969269388497600332e-02 4.767303880282945938e-01 3.764049059406331388e-01 3.411946736775684497e-01 -7.918792703084291951e-01 7.414414212036000151e-01 -9.369841171958247505e-01 9.956350989179726385e-01 1.409996175524906414e+00 3.578070867964703305e-01 -1.512110117119394248e+00 1.459485801705472152e+00 -7.720550348549559683e-01 2.096056030056503705e-01 -1.447610389442489209e+00 1.597051145059488753e-01 1.241225864743555896e-02 1.639757172098577354e-01 2.262421330741986036e+00 -8.877526297939903888e-01 -2.297090602855199615e-01 -3.766553314092428439e-01 9.094491427242764603e-01 1.331178487379892916e-01 -2.505519668956991408e-01 -3.104149667482640762e-01 6.033263759482614397e-01 -1.050911764572324048e+00 1.382845838118080817e+00 -9.933936109966796657e-01 2.505918704200607916e+00 -6.523748007898801937e-01 2.407920584886924786e-01 -4.969233197055730189e-01 8.750287534176483251e-02 -8.094203659659534589e-01 -3.311498870167429165e-01 -1.990573943042315830e-01 8.822484116913244939e-03 -3.186826067571076893e-01 4.301347958052966214e-01 -3.863082819158987213e-01 -7.449252662751211229e-01 -6.807921779393222295e-02 -7.407359104378248293e-01 4.620725276941678450e-01 1.415627406134238653e+00 -6.023169607637011147e-01 1.069346061541912141e+00 -6.652220901281654664e-01 4.620396175709829967e-01 -1.286445402440887342e+00 6.660232459394466176e-01 8.395830080855420929e-01 -2.490602127182109660e-01 -1.267650636778290263e+00 6.842472266530565950e-01 1.174801409081011716e+00 -2.070746088444655464e-01 -4.087678983275336297e-01 -1.094567042977025784e+00 3.339184511296683366e-01 -9.220439497112531413e-02 3.311581145475391680e-04 7.261690671631313432e-01 1.539314447697069932e-01 -8.987554095718998104e-01 3.747712268569102778e-01 -1.381176677807799180e+00 1.253761536352934414e+00 9.309204269990165592e-01 6.512615130290176912e-01 -3.509252715061136341e-01 -6.001428357508020728e-01 2.426571368760588043e-01 -2.944011064947865908e+00 1.411036443949952313e+00 -5.218763921691349505e-01 -4.923889217955105257e-01 5.956840282799298336e-01 1.106896512095824292e+00 4.906673109764032037e-01 -5.419433397810964337e-01 -3.090805640972533741e-01 3.197506430985910253e-01 -6.066446419625087794e-01 -7.387119378619567689e-01 2.761381478540296364e+00 -1.589229848596339367e-01 -1.186836743973846003e-01 -2.390956444826485006e-01 -2.676852855581361990e-01 1.420791724370886189e-01 3.163413600249105895e-01 6.009054250114760354e-01 1.023383474969547624e+00 1.374727322104918770e+00 -2.288724232476801457e-01 -9.572151012030356565e-01 -1.536425555946249855e+00 -6.696227906627895132e-01 -1.259672503009338307e+00 -1.693071571658031904e-01 -7.844477531167506346e-01 7.929473066499124201e-01 -6.908873582262745616e-01 5.398355492352417961e-01 -1.392790351747327460e+00 -1.591824091900519988e+00 -9.701667773382979254e-01 -3.829133970211117122e-01 1.600063963992926608e+00 -2.330705208364473868e-01 6.020377389373046118e-01 -1.192148643544150427e-01 2.445268432494980548e-01 